 Gaussian 16, Revision C.01,
 Gaussian 16:  ES64L-G16RevC.01  3-Jul-2019

 -----------------------------------------------------------
 # B3LYP/genecp em=GD3BJ int=fine scrf=(smd,solvent=acetone)
 -----------------------------------------------------------

 --------
 Template
 --------
 Symbolic Z-matrix:
 Charge =  0 Multiplicity = 1

                         Standard orientation:
 ---------------------------------------------------------------------
 Center     Atomic      Atomic             Coordinates (Angstroms)
 Number     Number       Type             X           Y           Z
 ---------------------------------------------------------------------
      1         27           0        1.362500    0.220922    0.215395
      2          7           0       -0.129592    0.582293    1.308717
      3          8           0       -0.860150   -0.335293    2.001955
      4          6           0       -0.437082    1.834364    1.412665
      5          6           0       -1.554177    2.352647    2.252188
      6          1           0       -2.092824    1.519309    2.695272
      7          1           0       -2.234977    2.943066    1.643363
      8          1           0       -1.165223    2.993047    3.042152
      9          7           0        1.292970    2.076239   -0.088856
     10          8           0        2.109298    2.714912   -0.869153
     11          6           0        0.395478    2.704746    0.618379
     12          6           0        0.220655    4.189714    0.597192
     13          1           0        0.330375    4.605677    1.597012
     14          1           0       -0.765923    4.454106    0.220725
     15          1           0        0.978245    4.618788   -0.055605
     16          7           0        3.011465   -0.076786   -0.627569
     17          8           0        3.685291    0.811141   -1.412876
     18          6           0        3.542628   -1.234326   -0.397247
     19          6           0        4.868795   -1.661465   -0.926742
     20          1           0        5.481186   -2.074696   -0.128820
     21          1           0        5.372775   -0.810549   -1.377583
     22          1           0        4.730928   -2.432088   -1.683529
     23          7           0        1.578640   -1.578183    0.753060
     24          8           0        0.711576   -2.239966    1.455097
     25          6           0        2.718100   -2.106498    0.403738
     26          6           0        3.130696   -3.496596    0.769238
     27          1           0        2.315764   -3.966113    1.316519
     28          1           0        4.019487   -3.483752    1.398345
     29          1           0        3.348297   -4.079029   -0.123739
     30          1           0       -0.342322   -1.222384    1.858532
     31          1           0        3.138905    1.688964   -1.328983
     32          6           0        0.387037   -0.253551   -1.497930
     33          1           0        0.859208    0.382371   -2.246044
     34          1           0        0.641481   -1.303656   -1.640327
     35          6           0       -1.043016   -0.031605   -1.395258
     36          6           0       -1.835168   -1.001110   -0.868004
     37          1           0       -1.336309   -1.875156   -0.467609
     38          6           0       -1.562973    1.287167   -1.891971
     39          1           0       -0.801449    2.053363   -1.777872
     40          1           0       -1.799026    1.215618   -2.953173
     41          1           0       -2.458954    1.587362   -1.356096
     42          6           0       -3.272279   -0.999921   -0.680097
     43          6           0       -3.792308   -1.661193    0.439798
     44          6           0       -4.171410   -0.404570   -1.569706
     45          6           0       -5.150273   -1.681791    0.685665
     46          1           0       -3.110676   -2.134858    1.130329
     47          6           0       -5.532553   -0.444029   -1.329152
     48          1           0       -3.807994    0.051112   -2.475797
     49          6           0       -6.028270   -1.069719   -0.196739
     50          1           0       -5.529752   -2.182993    1.564456
     51          1           0       -6.212868    0.014489   -2.032365
     52          1           0       -7.091617   -1.091777   -0.008585
 ---------------------------------------------------------------------

 SCF Done:  E(RB3LYP) =  -1365.93193695     A.U. after   21 cycles

 The electronic state is 1-A.
 Alpha  occ. eigenvalues --  -19.16630 -19.16474 -19.12764 -19.12649 -14.40940
 Alpha  occ. eigenvalues --  -14.40934 -14.40609 -14.40387 -10.23632 -10.23470
 Alpha  occ. eigenvalues --  -10.21402 -10.21323 -10.18486 -10.18421 -10.17513
 Alpha  occ. eigenvalues --  -10.17481 -10.17455 -10.17445 -10.17440 -10.17402
 Alpha  occ. eigenvalues --  -10.17371 -10.17340 -10.16942 -10.16824 -10.16798
 Alpha  occ. eigenvalues --  -10.15832  -3.74437  -2.44469  -2.43653  -2.42602
 Alpha  occ. eigenvalues --   -1.09057  -1.08516  -1.06859  -1.06319  -0.90595
 Alpha  occ. eigenvalues --   -0.89384  -0.85739  -0.81914  -0.80939  -0.80574
 Alpha  occ. eigenvalues --   -0.75282  -0.74632  -0.74174  -0.74165  -0.70647
 Alpha  occ. eigenvalues --   -0.70517  -0.68442  -0.66393  -0.62310  -0.60292
 Alpha  occ. eigenvalues --   -0.60017  -0.58755  -0.54904  -0.53528  -0.52917
 Alpha  occ. eigenvalues --   -0.52087  -0.51291  -0.50841  -0.49454  -0.48984
 Alpha  occ. eigenvalues --   -0.47612  -0.47030  -0.46629  -0.46061  -0.45274
 Alpha  occ. eigenvalues --   -0.44469  -0.43382  -0.42757  -0.42276  -0.42220
 Alpha  occ. eigenvalues --   -0.42003  -0.41840  -0.41557  -0.40951  -0.40550
 Alpha  occ. eigenvalues --   -0.40004  -0.39627  -0.39291  -0.38807  -0.38250
 Alpha  occ. eigenvalues --   -0.38110  -0.38018  -0.37596  -0.37383  -0.36760
 Alpha  occ. eigenvalues --   -0.36492  -0.34962  -0.34302  -0.34220  -0.33211
 Alpha  occ. eigenvalues --   -0.32895  -0.30918  -0.30441  -0.28282  -0.28010
 Alpha  occ. eigenvalues --   -0.27728  -0.26442  -0.26234  -0.25107  -0.25023
 Alpha  occ. eigenvalues --   -0.24897  -0.22368  -0.20178  -0.19802  -0.19451
 Alpha virt. eigenvalues --   -0.09154  -0.03750  -0.03346  -0.00424   0.00276
 Alpha virt. eigenvalues --    0.00530   0.02580   0.02811   0.03352   0.06003
 Alpha virt. eigenvalues --    0.06716   0.06827   0.07835   0.11028   0.12256

 Mulliken charges:
               1
     1  Co   0.320900
     2  N   -0.172297
     3  O   -0.567214
     4  C    0.327079
     5  C   -0.548480
     6  H    0.201293
     7  H    0.200790
     8  H    0.201562
     9  N   -0.077483
    10  O   -0.559875
    11  C    0.269776
    12  C   -0.548925
    13  H    0.187110
    14  H    0.188219
    15  H    0.190531
    16  N   -0.159536
    17  O   -0.573173
    18  C    0.324042
    19  C   -0.545862
    20  H    0.199094
    21  H    0.200458
    22  H    0.204857
    23  N   -0.078045
    24  O   -0.555840
    25  C    0.270684
    26  C   -0.548017
    27  H    0.190563
    28  H    0.189191
    29  H    0.187378
    30  H    0.472393
    31  H    0.470828
    32  C   -0.403222
    33  H    0.189785
    34  H    0.194669
    35  C    0.231618
    36  C   -0.247003
    37  H    0.149042
    38  C   -0.555503
    39  H    0.181368
    40  H    0.180649
    41  H    0.169481
    42  C    0.142072
    43  C   -0.197338
    44  C   -0.200871
    45  C   -0.156220
    46  H    0.153431
    47  C   -0.158611
    48  H    0.159056
    49  C   -0.151944
    50  H    0.152737
    51  H    0.152606
    52  H    0.152197
 Sum of Mulliken charges =  -0.00000

 Dipole moment (field-independent basis, Debye):
    X=              0.1441    Y=              0.3988    Z=              0.7673  Tot=              0.8767
 Quadrupole moment (field-independent basis, Debye-Ang):
   XX=           -148.5785   YY=           -158.9061   ZZ=           -164.5752
   XY=            -23.0427   XZ=              3.7425   YZ=             10.0530

 Normal termination of Gaussian 16 at Thu Mar  2 08:30:03 2023.
