 Gaussian 16, Revision C.01,
 Gaussian 16:  ES64L-G16RevC.01  3-Jul-2019

 -----------------------------------------------------------
 # B3LYP/genecp em=GD3BJ int=fine scrf=(smd,solvent=acetone)
 -----------------------------------------------------------

 --------
 Template
 --------
 Symbolic Z-matrix:
 Charge =  0 Multiplicity = 1

                         Standard orientation:
 ---------------------------------------------------------------------
 Center     Atomic      Atomic             Coordinates (Angstroms)
 Number     Number       Type             X           Y           Z
 ---------------------------------------------------------------------
      1         27           0        1.370378    0.179313    0.193687
      2          7           0       -0.045520    0.842757    1.244088
      3          8           0       -0.931718    0.099018    1.964001
      4          6           0       -0.122295    2.133052    1.299790
      5          6           0       -1.127340    2.875820    2.112094
      6          1           0       -1.688776    3.558228    1.478123
      7          1           0       -0.628268    3.463018    2.881253
      8          1           0       -1.808165    2.170815    2.581543
      9          7           0        1.631945    2.005191   -0.187489
     10          8           0        2.552460    2.457197   -0.981991
     11          6           0        0.853863    2.810461    0.480838
     12          6           0        0.942871    4.301015    0.397502
     13          1           0        0.017021    4.720465    0.007839
     14          1           0        1.761649    4.562094   -0.270066
     15          1           0        1.129052    4.731875    1.379619
     16          7           0        2.953891   -0.435122   -0.604049
     17          8           0        3.786737    0.288823   -1.404799
     18          6           0        3.269119   -1.657737   -0.319398
     19          6           0        4.506887   -2.332573   -0.803524
     20          1           0        4.246225   -3.101030   -1.529559
     21          1           0        5.027666   -2.809483    0.023450
     22          1           0        5.157464   -1.603489   -1.279385
     23          7           0        1.258444   -1.605130    0.801585
     24          8           0        0.279580   -2.076634    1.509385
     25          6           0        2.291926   -2.338541    0.495201
     26          6           0        2.447655   -3.763788    0.920579
     27          1           0        1.555861   -4.059744    1.469393
     28          1           0        3.316830   -3.882480    1.565786
     29          1           0        2.569832   -4.411168    0.054542
     30          1           0       -0.585405   -0.871318    1.855601
     31          1           0        3.396834    1.249310   -1.373189
     32          6           0        0.347542   -0.190309   -1.516844
     33          1           0        0.828568    0.459993   -2.246687
     34          1           0        0.558668   -1.241441   -1.712405
     35          6           0       -1.069386    0.078600   -1.365045
     36          6           0       -1.882534   -0.893545   -0.873594
     37          1           0       -1.400255   -1.801380   -0.532736
     38          6           0       -1.550005    1.442961   -1.769223
     39          1           0       -0.749112    2.167313   -1.648605
     40          1           0       -1.835640    1.439891   -2.820576
     41          1           0       -2.405840    1.751318   -1.175416
     42          6           0       -3.313877   -0.876676   -0.657356
     43          6           0       -3.827347   -1.653969    0.389680
     44          6           0       -4.218715   -0.166293   -1.452460
     45          6           0       -5.179765   -1.677532    0.662223
     46          1           0       -3.143284   -2.222597    1.002053
     47          6           0       -5.575023   -0.207035   -1.186628
     48          1           0       -3.866586    0.383322   -2.309129
     49          6           0       -6.061773   -0.949691   -0.123084
     50          1           0       -5.552372   -2.271018    1.484681
     51          1           0       -6.259410    0.342457   -1.816925
     52          1           0       -7.121366   -0.972816    0.085033
 ---------------------------------------------------------------------

 SCF Done:  E(RB3LYP) =  -1365.93260411     A.U. after   21 cycles

 The electronic state is 1-A.
 Alpha  occ. eigenvalues --  -19.16621 -19.16387 -19.12716 -19.12655 -14.40946
 Alpha  occ. eigenvalues --  -14.40933 -14.40599 -14.40401 -10.23603 -10.23515
 Alpha  occ. eigenvalues --  -10.21399 -10.21332 -10.18516 -10.18439 -10.17529
 Alpha  occ. eigenvalues --  -10.17499 -10.17459 -10.17452 -10.17436 -10.17412
 Alpha  occ. eigenvalues --  -10.17390 -10.17380 -10.16915 -10.16825 -10.16809
 Alpha  occ. eigenvalues --  -10.15861  -3.74378  -2.44408  -2.43616  -2.42529
 Alpha  occ. eigenvalues --   -1.09037  -1.08486  -1.06859  -1.06315  -0.90581
 Alpha  occ. eigenvalues --   -0.89375  -0.85750  -0.81903  -0.80936  -0.80570
 Alpha  occ. eigenvalues --   -0.75319  -0.74637  -0.74187  -0.74179  -0.70646
 Alpha  occ. eigenvalues --   -0.70520  -0.68472  -0.66373  -0.62297  -0.60289
 Alpha  occ. eigenvalues --   -0.60050  -0.58774  -0.54894  -0.53520  -0.52943
 Alpha  occ. eigenvalues --   -0.52068  -0.51274  -0.50836  -0.49464  -0.48966
 Alpha  occ. eigenvalues --   -0.47602  -0.47027  -0.46615  -0.46074  -0.45293
 Alpha  occ. eigenvalues --   -0.44465  -0.43398  -0.42666  -0.42290  -0.42205
 Alpha  occ. eigenvalues --   -0.42009  -0.41816  -0.41524  -0.40993  -0.40550
 Alpha  occ. eigenvalues --   -0.39990  -0.39620  -0.39317  -0.38799  -0.38176
 Alpha  occ. eigenvalues --   -0.38130  -0.38049  -0.37606  -0.37375  -0.36808
 Alpha  occ. eigenvalues --   -0.36555  -0.34956  -0.34289  -0.34236  -0.33142
 Alpha  occ. eigenvalues --   -0.32896  -0.30888  -0.30516  -0.28236  -0.27993
 Alpha  occ. eigenvalues --   -0.27710  -0.26536  -0.26214  -0.25066  -0.24999
 Alpha  occ. eigenvalues --   -0.24914  -0.22348  -0.20093  -0.19736  -0.19504
 Alpha virt. eigenvalues --   -0.09160  -0.03728  -0.03313  -0.00413   0.00295
 Alpha virt. eigenvalues --    0.00500   0.02588   0.02784   0.03368   0.06087
 Alpha virt. eigenvalues --    0.06710   0.06813   0.07867   0.11060   0.12314

 Mulliken charges:
               1
     1  Co   0.314324
     2  N   -0.177160
     3  O   -0.567961
     4  C    0.330368
     5  C   -0.548101
     6  H    0.200459
     7  H    0.201961
     8  H    0.201419
     9  N   -0.075951
    10  O   -0.558899
    11  C    0.268830
    12  C   -0.549321
    13  H    0.188360
    14  H    0.190668
    15  H    0.187227
    16  N   -0.159489
    17  O   -0.573072
    18  C    0.323633
    19  C   -0.545991
    20  H    0.204630
    21  H    0.199046
    22  H    0.200049
    23  N   -0.077754
    24  O   -0.554949
    25  C    0.270439
    26  C   -0.548061
    27  H    0.190479
    28  H    0.189118
    29  H    0.187315
    30  H    0.474802
    31  H    0.470371
    32  C   -0.404924
    33  H    0.190849
    34  H    0.192214
    35  C    0.235679
    36  C   -0.253007
    37  H    0.154775
    38  C   -0.556524
    39  H    0.179698
    40  H    0.181124
    41  H    0.170773
    42  C    0.150901
    43  C   -0.203050
    44  C   -0.202106
    45  C   -0.155224
    46  H    0.154606
    47  C   -0.158316
    48  H    0.159303
    49  C   -0.151885
    50  H    0.153077
    51  H    0.152746
    52  H    0.152500
 Sum of Mulliken charges =  -0.00000

 Dipole moment (field-independent basis, Debye):
    X=              0.0575    Y=              0.3322    Z=              0.8029  Tot=              0.8708
 Quadrupole moment (field-independent basis, Debye-Ang):
   XX=           -156.5055   YY=           -148.7937   ZZ=           -166.5501
   XY=            -22.1177   XZ=              7.0365   YZ=              8.1853

 Normal termination of Gaussian 16 at Thu Mar  2 08:37:26 2023.
