 Gaussian 16, Revision C.01,
 Gaussian 16:  ES64L-G16RevC.01  3-Jul-2019

 -----------------------------------------------------------
 # B3LYP/genecp em=GD3BJ int=fine scrf=(smd,solvent=acetone)
 -----------------------------------------------------------

 --------
 Template
 --------
 Symbolic Z-matrix:
 Charge =  0 Multiplicity = 1

                         Standard orientation:
 ---------------------------------------------------------------------
 Center     Atomic      Atomic             Coordinates (Angstroms)
 Number     Number       Type             X           Y           Z
 ---------------------------------------------------------------------
      1         27           0        1.363299    0.217577    0.212343
      2          7           0       -0.122861    0.620917    1.298956
      3          8           0       -0.876033   -0.274576    1.996864
      4          6           0       -0.401006    1.880549    1.394256
      5          6           0       -1.506858    2.430211    2.228725
      6          1           0       -1.102728    3.052945    3.025265
      7          1           0       -2.074797    1.612224    2.663818
      8          1           0       -2.163731    3.046066    1.618961
      9          7           0        1.338315    2.072393   -0.103718
     10          8           0        2.171728    2.686800   -0.885496
     11          6           0        0.453467    2.726197    0.596443
     12          6           0        0.313371    4.214691    0.565220
     13          1           0        0.428474    4.634234    1.562924
     14          1           0       -0.665093    4.499839    0.182676
     15          1           0        1.083544    4.621766   -0.086948
     16          7           0        3.007337   -0.123716   -0.623667
     17          8           0        3.704784    0.743375   -1.411563
     18          6           0        3.510285   -1.292088   -0.384741
     19          6           0        4.827655   -1.753202   -0.907673
     20          1           0        4.673158   -2.513826   -1.671425
     21          1           0        5.422324   -2.189512   -0.108754
     22          1           0        5.358631   -0.913913   -1.349316
     23          7           0        1.534630   -1.582847    0.760373
     24          8           0        0.649538   -2.220171    1.462391
     25          6           0        2.662501   -2.139927    0.418083
     26          6           0        3.040508   -3.537411    0.792817
     27          1           0        2.209578   -3.986833    1.332878
     28          1           0        3.922214   -3.541659    1.432022
     29          1           0        3.255311   -4.127704   -0.095605
     30          1           0       -0.380472   -1.174816    1.858047
     31          1           0        3.178764    1.634206   -1.335149
     32          6           0        0.382599   -0.244546   -1.500960
     33          1           0        0.854170    0.394755   -2.246574
     34          1           0        0.633749   -1.294366   -1.651077
     35          6           0       -1.046376   -0.019541   -1.390999
     36          6           0       -1.838719   -0.990543   -0.866592
     37          1           0       -1.340056   -1.867573   -0.472519
     38          6           0       -1.564911    1.304039   -1.876275
     39          1           0       -2.457291    1.602964   -1.333710
     40          1           0       -0.800421    2.067037   -1.760181
     41          1           0       -1.806267    1.240729   -2.936799
     42          6           0       -3.275193   -0.989174   -0.674953
     43          6           0       -4.176058   -0.384430   -1.556508
     44          6           0       -3.793194   -1.661347    0.439425
     45          6           0       -5.536641   -0.425332   -1.313118
     46          1           0       -3.814586    0.079960   -2.458923
     47          6           0       -5.150530   -1.683253    0.688446
     48          1           0       -3.110412   -2.143091    1.123191
     49          6           0       -6.030150   -1.061785   -0.185746
     50          1           0       -6.218334    0.040458   -2.010193
     51          1           0       -5.528307   -2.192871    1.563118
     52          1           0       -7.093062   -1.084891    0.004733
 ---------------------------------------------------------------------

 SCF Done:  E(RB3LYP) =  -1365.93203984     A.U. after   21 cycles

 The electronic state is 1-A.
 Alpha  occ. eigenvalues --  -19.16633 -19.16465 -19.12765 -19.12649 -14.40942
 Alpha  occ. eigenvalues --  -14.40936 -14.40610 -14.40392 -10.23630 -10.23478
 Alpha  occ. eigenvalues --  -10.21407 -10.21326 -10.18486 -10.18423 -10.17513
 Alpha  occ. eigenvalues --  -10.17482 -10.17457 -10.17447 -10.17441 -10.17402
 Alpha  occ. eigenvalues --  -10.17377 -10.17346 -10.16939 -10.16825 -10.16802
 Alpha  occ. eigenvalues --  -10.15835  -3.74430  -2.44462  -2.43649  -2.42593
 Alpha  occ. eigenvalues --   -1.09058  -1.08516  -1.06861  -1.06320  -0.90596
 Alpha  occ. eigenvalues --   -0.89385  -0.85740  -0.81915  -0.80939  -0.80576
 Alpha  occ. eigenvalues --   -0.75285  -0.74633  -0.74176  -0.74167  -0.70648
 Alpha  occ. eigenvalues --   -0.70519  -0.68444  -0.66392  -0.62311  -0.60295
 Alpha  occ. eigenvalues --   -0.60019  -0.58756  -0.54906  -0.53529  -0.52917
 Alpha  occ. eigenvalues --   -0.52086  -0.51291  -0.50843  -0.49458  -0.48984
 Alpha  occ. eigenvalues --   -0.47611  -0.47032  -0.46629  -0.46059  -0.45274
 Alpha  occ. eigenvalues --   -0.44471  -0.43386  -0.42751  -0.42279  -0.42220
 Alpha  occ. eigenvalues --   -0.42004  -0.41839  -0.41558  -0.40958  -0.40551
 Alpha  occ. eigenvalues --   -0.39998  -0.39628  -0.39301  -0.38810  -0.38242
 Alpha  occ. eigenvalues --   -0.38110  -0.38021  -0.37598  -0.37388  -0.36761
 Alpha  occ. eigenvalues --   -0.36505  -0.34966  -0.34304  -0.34222  -0.33203
 Alpha  occ. eigenvalues --   -0.32896  -0.30915  -0.30449  -0.28278  -0.28013
 Alpha  occ. eigenvalues --   -0.27728  -0.26443  -0.26235  -0.25101  -0.25022
 Alpha  occ. eigenvalues --   -0.24897  -0.22369  -0.20171  -0.19798  -0.19456
 Alpha virt. eigenvalues --   -0.09157  -0.03746  -0.03342  -0.00423   0.00278
 Alpha virt. eigenvalues --    0.00529   0.02577   0.02807   0.03353   0.06010
 Alpha virt. eigenvalues --    0.06709   0.06820   0.07836   0.11031   0.12268

 Mulliken charges:
               1
     1  Co   0.319081
     2  N   -0.172843
     3  O   -0.567278
     4  C    0.327579
     5  C   -0.548353
     6  H    0.201872
     7  H    0.201376
     8  H    0.200432
     9  N   -0.077141
    10  O   -0.559764
    11  C    0.269330
    12  C   -0.549003
    13  H    0.187079
    14  H    0.188328
    15  H    0.190546
    16  N   -0.159222
    17  O   -0.573080
    18  C    0.323666
    19  C   -0.545521
    20  H    0.205019
    21  H    0.198829
    22  H    0.200254
    23  N   -0.077930
    24  O   -0.555599
    25  C    0.270726
    26  C   -0.548033
    27  H    0.190625
    28  H    0.189321
    29  H    0.187264
    30  H    0.472725
    31  H    0.470744
    32  C   -0.403076
    33  H    0.189917
    34  H    0.194337
    35  C    0.231975
    36  C   -0.247881
    37  H    0.149826
    38  C   -0.555607
    39  H    0.169618
    40  H    0.181275
    41  H    0.180701
    42  C    0.142987
    43  C   -0.200923
    44  C   -0.197554
    45  C   -0.158572
    46  H    0.159061
    47  C   -0.156203
    48  H    0.153450
    49  C   -0.151939
    50  H    0.152605
    51  H    0.152758
    52  H    0.152216
 Sum of Mulliken charges =  -0.00000

 Dipole moment (field-independent basis, Debye):
    X=              0.1297    Y=              0.3864    Z=              0.7700  Tot=              0.8712
 Quadrupole moment (field-independent basis, Debye-Ang):
   XX=           -149.6735   YY=           -157.5662   ZZ=           -164.8045
   XY=            -23.1236   XZ=              4.2268   YZ=              9.8282

 Normal termination of Gaussian 16 at Thu Mar  2 08:31:45 2023.
