 Gaussian 16, Revision C.01,
 Gaussian 16:  ES64L-G16RevC.01  3-Jul-2019

 -----------------------------------------------------------
 # B3LYP/genecp em=GD3BJ int=fine scrf=(smd,solvent=acetone)
 -----------------------------------------------------------

 --------
 Template
 --------
 Symbolic Z-matrix:
 Charge =  0 Multiplicity = 1

                         Standard orientation:
 ---------------------------------------------------------------------
 Center     Atomic      Atomic             Coordinates (Angstroms)
 Number     Number       Type             X           Y           Z
 ---------------------------------------------------------------------
      1         27           0        1.362559    0.224819    0.219790
      2          7           0       -0.132871    0.552435    1.318579
      3          8           0       -0.843422   -0.381986    2.010328
      4          6           0       -0.465383    1.797670    1.427319
      5          6           0       -1.590878    2.290937    2.270560
      6          1           0       -2.318937    2.809895    1.650776
      7          1           0       -1.223242    2.991023    3.018563
      8          1           0       -2.072006    1.450444    2.763421
      9          7           0        1.254426    2.078342   -0.079056
     10          8           0        2.055604    2.735126   -0.859797
     11          6           0        0.346582    2.686793    0.632559
     12          6           0        0.140987    4.167828    0.615115
     13          1           0        0.284696    4.589396    1.608519
     14          1           0       -0.865696    4.410897    0.280479
     15          1           0        0.863008    4.610046   -0.068488
     16          7           0        3.013024   -0.038710   -0.632348
     17          8           0        3.663707    0.862824   -1.421731
     18          6           0        3.567218   -1.186916   -0.409747
     19          6           0        4.895617   -1.587661   -0.953936
     20          1           0        4.760349   -2.329754   -1.739410
     21          1           0        5.510805   -2.027144   -0.172719
     22          1           0        5.394260   -0.718430   -1.375022
     23          7           0        1.618171   -1.570930    0.753148
     24          8           0        0.769838   -2.250657    1.461030
     25          6           0        2.765609   -2.076121    0.395666
     26          6           0        3.207836   -3.458149    0.757231
     27          1           0        2.402429   -3.946813    1.301878
     28          1           0        4.094823   -3.428002    1.388419
     29          1           0        3.439641   -4.032703   -0.137197
     30          1           0       -0.305621   -1.257049    1.866975
     31          1           0        3.102575    1.730186   -1.330588
     32          6           0        0.391071   -0.262772   -1.492098
     33          1           0        0.862192    0.369774   -2.243739
     34          1           0        0.649971   -1.312892   -1.626382
     35          6           0       -1.040571   -0.046268   -1.396425
     36          6           0       -1.830665   -1.012682   -0.861607
     37          1           0       -1.331547   -1.881285   -0.449994
     38          6           0       -1.565486    1.264127   -1.909850
     39          1           0       -1.784035    1.183197   -2.974128
     40          1           0       -2.472957    1.558921   -1.390622
     41          1           0       -0.813558    2.038728   -1.789157
     42          6           0       -3.269128   -1.010580   -0.679708
     43          6           0       -3.792915   -1.636189    0.458389
     44          6           0       -4.164085   -0.446999   -1.593500
     45          6           0       -5.152391   -1.653418    0.696535
     46          1           0       -3.113286   -2.082909    1.168565
     47          6           0       -5.526669   -0.484058   -1.360479
     48          1           0       -3.795319   -0.018462   -2.510814
     49          6           0       -6.026966   -1.074640   -0.211351
     50          1           0       -5.535642   -2.126401    1.589214
     51          1           0       -6.204332   -0.051409   -2.082395
     52          1           0       -7.091432   -1.095197   -0.029404
 ---------------------------------------------------------------------

 SCF Done:  E(RB3LYP) =  -1365.93179269     A.U. after   21 cycles

 The electronic state is 1-A.
 Alpha  occ. eigenvalues --  -19.16647 -19.16491 -19.12767 -19.12654 -14.40942
 Alpha  occ. eigenvalues --  -14.40939 -14.40604 -14.40387 -10.23635 -10.23471
 Alpha  occ. eigenvalues --  -10.21401 -10.21321 -10.18474 -10.18406 -10.17510
 Alpha  occ. eigenvalues --  -10.17478 -10.17458 -10.17443 -10.17435 -10.17401
 Alpha  occ. eigenvalues --  -10.17369 -10.17325 -10.16934 -10.16823 -10.16796
 Alpha  occ. eigenvalues --  -10.15821  -3.74450  -2.44483  -2.43664  -2.42617
 Alpha  occ. eigenvalues --   -1.09064  -1.08525  -1.06863  -1.06325  -0.90599
 Alpha  occ. eigenvalues --   -0.89389  -0.85737  -0.81915  -0.80934  -0.80576
 Alpha  occ. eigenvalues --   -0.75270  -0.74630  -0.74174  -0.74160  -0.70647
 Alpha  occ. eigenvalues --   -0.70517  -0.68427  -0.66393  -0.62314  -0.60296
 Alpha  occ. eigenvalues --   -0.60011  -0.58747  -0.54906  -0.53530  -0.52905
 Alpha  occ. eigenvalues --   -0.52092  -0.51293  -0.50845  -0.49453  -0.48990
 Alpha  occ. eigenvalues --   -0.47613  -0.47031  -0.46627  -0.46049  -0.45262
 Alpha  occ. eigenvalues --   -0.44473  -0.43381  -0.42782  -0.42276  -0.42235
 Alpha  occ. eigenvalues --   -0.42010  -0.41853  -0.41555  -0.40935  -0.40563
 Alpha  occ. eigenvalues --   -0.39980  -0.39638  -0.39287  -0.38802  -0.38250
 Alpha  occ. eigenvalues --   -0.38105  -0.38026  -0.37597  -0.37383  -0.36742
 Alpha  occ. eigenvalues --   -0.36477  -0.34961  -0.34307  -0.34216  -0.33230
 Alpha  occ. eigenvalues --   -0.32895  -0.30923  -0.30422  -0.28293  -0.28014
 Alpha  occ. eigenvalues --   -0.27737  -0.26410  -0.26229  -0.25119  -0.25025
 Alpha  occ. eigenvalues --   -0.24895  -0.22370  -0.20201  -0.19808  -0.19456
 Alpha virt. eigenvalues --   -0.09151  -0.03742  -0.03354  -0.00426   0.00270
 Alpha virt. eigenvalues --    0.00531   0.02580   0.02817   0.03350   0.05969
 Alpha virt. eigenvalues --    0.06717   0.06820   0.07830   0.11028   0.12235

 Mulliken charges:
               1
     1  Co   0.321766
     2  N   -0.171892
     3  O   -0.567063
     4  C    0.326789
     5  C   -0.548633
     6  H    0.202237
     7  H    0.200433
     8  H    0.201043
     9  N   -0.077548
    10  O   -0.559794
    11  C    0.270290
    12  C   -0.548909
    13  H    0.187716
    14  H    0.187639
    15  H    0.190502
    16  N   -0.159297
    17  O   -0.572945
    18  C    0.323855
    19  C   -0.545427
    20  H    0.205407
    21  H    0.198440
    22  H    0.200368
    23  N   -0.078179
    24  O   -0.555914
    25  C    0.270441
    26  C   -0.548099
    27  H    0.190493
    28  H    0.189425
    29  H    0.187229
    30  H    0.472155
    31  H    0.470854
    32  C   -0.402882
    33  H    0.189569
    34  H    0.195148
    35  C    0.231191
    36  C   -0.246099
    37  H    0.148787
    38  C   -0.555039
    39  H    0.180249
    40  H    0.169069
    41  H    0.181354
    42  C    0.139484
    43  C   -0.196789
    44  C   -0.200248
    45  C   -0.156330
    46  H    0.153524
    47  C   -0.158661
    48  H    0.158890
    49  C   -0.151973
    50  H    0.152676
    51  H    0.152589
    52  H    0.152109
 Sum of Mulliken charges =  -0.00000

 Dipole moment (field-independent basis, Debye):
    X=              0.1597    Y=              0.4147    Z=              0.7396  Tot=              0.8628
 Quadrupole moment (field-independent basis, Debye-Ang):
   XX=           -147.7326   YY=           -160.1186   ZZ=           -164.3049
   XY=            -22.8637   XZ=              3.2986   YZ=             10.3533

 Normal termination of Gaussian 16 at Thu Mar  2 08:28:34 2023.
