 Gaussian 16, Revision C.01,
 Gaussian 16:  ES64L-G16RevC.01  3-Jul-2019

 -----------------------------------------------------------
 # B3LYP/genecp em=GD3BJ int=fine scrf=(smd,solvent=acetone)
 -----------------------------------------------------------

 --------
 Template
 --------
 Symbolic Z-matrix:
 Charge =  0 Multiplicity = 1

                         Standard orientation:
 ---------------------------------------------------------------------
 Center     Atomic      Atomic             Coordinates (Angstroms)
 Number     Number       Type             X           Y           Z
 ---------------------------------------------------------------------
      1         27           0       -1.348567    0.309927    0.235165
      2          7           0       -0.505738    1.984025    0.075305
      3          8           0       -0.823701    2.963090   -0.823855
      4          6           0        0.462493    2.194955    0.907587
      5          6           0        1.252804    3.457291    0.963308
      6          1           0        0.801830    4.200931    0.311307
      7          1           0        2.272437    3.264734    0.633047
      8          1           0        1.292652    3.835251    1.982316
      9          7           0        0.008755    0.027692    1.533301
     10          8           0        0.155040   -1.068422    2.213341
     11          6           0        0.746393    1.075859    1.770744
     12          6           0        1.814338    1.117041    2.816339
     13          1           0        1.876963    0.137945    3.286476
     14          1           0        1.581727    1.861262    3.576875
     15          1           0        2.776072    1.365446    2.372272
     16          7           0       -2.303674   -1.262597    0.595947
     17          8           0       -1.873820   -2.313739    1.350448
     18          6           0       -3.489013   -1.311282    0.076740
     19          6           0       -4.430437   -2.452545    0.258002
     20          1           0       -5.405511   -2.092946    0.577962
     21          1           0       -4.029994   -3.142136    0.996587
     22          1           0       -4.556363   -2.978754   -0.686911
     23          7           0       -2.861039    0.720928   -0.801001
     24          8           0       -2.994938    1.817250   -1.473737
     25          6           0       -3.821800   -0.157253   -0.720876
     26          6           0       -5.143894    0.002823   -1.400785
     27          1           0       -5.948666    0.075901   -0.670658
     28          1           0       -5.344488   -0.845217   -2.052153
     29          1           0       -5.119186    0.915355   -1.992787
     30          1           0       -1.719257    2.647628   -1.227987
     31          1           0       -1.000498   -1.967616    1.787584
     32          6           0       -0.449426   -0.432029   -1.419685
     33          1           0       -1.140271   -1.187363   -1.791762
     34          1           0       -0.406953    0.429402   -2.085221
     35          6           0        0.855596   -0.968350   -1.085362
     36          6           0        1.951084   -0.174606   -1.227264
     37          1           0        1.781962    0.813029   -1.640668
     38          6           0        0.922235   -2.405836   -0.662201
     39          1           0        0.063359   -2.950603   -1.045132
     40          1           0        1.833700   -2.874279   -1.024235
     41          1           0        0.900001   -2.483201    0.423803
     42          6           0        3.342687   -0.467574   -0.959239
     43          6           0        3.775634   -1.370752    0.017810
     44          6           0        4.318515    0.226918   -1.688515
     45          6           0        5.124162   -1.589274    0.229485
     46          1           0        3.057002   -1.867441    0.646571
     47          6           0        5.663259   -0.005355   -1.484325
     48          1           0        4.004416    0.943152   -2.434486
     49          6           0        6.073913   -0.921271   -0.526704
     50          1           0        5.437129   -2.285750    0.993983
     51          1           0        6.397279    0.531467   -2.067735
     52          1           0        7.125926   -1.102557   -0.363299
 ---------------------------------------------------------------------

 SCF Done:  E(RB3LYP) =  -1365.93370470     A.U. after   20 cycles

 The electronic state is 1-A.
 Alpha  occ. eigenvalues --  -19.16691 -19.16602 -19.12821 -19.12818 -14.41192
 Alpha  occ. eigenvalues --  -14.40848 -14.40539 -14.40475 -10.23652 -10.23585
 Alpha  occ. eigenvalues --  -10.21321 -10.21198 -10.18676 -10.18542 -10.17618
 Alpha  occ. eigenvalues --  -10.17586 -10.17552 -10.17523 -10.17470 -10.17467
 Alpha  occ. eigenvalues --  -10.17464 -10.17428 -10.17127 -10.16826 -10.16732
 Alpha  occ. eigenvalues --  -10.15423  -3.74513  -2.44554  -2.43728  -2.42672
 Alpha  occ. eigenvalues --   -1.09092  -1.08541  -1.07021  -1.06421  -0.90630
 Alpha  occ. eigenvalues --   -0.89446  -0.85851  -0.81920  -0.81004  -0.80613
 Alpha  occ. eigenvalues --   -0.75375  -0.74663  -0.74270  -0.74205  -0.70645
 Alpha  occ. eigenvalues --   -0.70505  -0.68364  -0.66442  -0.62331  -0.60339
 Alpha  occ. eigenvalues --   -0.60131  -0.58855  -0.54922  -0.53625  -0.52987
 Alpha  occ. eigenvalues --   -0.52120  -0.51380  -0.50905  -0.49419  -0.49076
 Alpha  occ. eigenvalues --   -0.47726  -0.46907  -0.46661  -0.46012  -0.45673
 Alpha  occ. eigenvalues --   -0.44549  -0.43419  -0.42758  -0.42445  -0.42253
 Alpha  occ. eigenvalues --   -0.42073  -0.41945  -0.41411  -0.40880  -0.40592
 Alpha  occ. eigenvalues --   -0.40177  -0.39535  -0.38957  -0.38837  -0.38185
 Alpha  occ. eigenvalues --   -0.38064  -0.37903  -0.37580  -0.37337  -0.36798
 Alpha  occ. eigenvalues --   -0.36421  -0.34731  -0.34631  -0.34305  -0.33436
 Alpha  occ. eigenvalues --   -0.33128  -0.30968  -0.30595  -0.28279  -0.27936
 Alpha  occ. eigenvalues --   -0.27721  -0.26884  -0.26400  -0.25204  -0.25085
 Alpha  occ. eigenvalues --   -0.25035  -0.22464  -0.20350  -0.19781  -0.19347
 Alpha virt. eigenvalues --   -0.09368  -0.03852  -0.03349  -0.00492   0.00202
 Alpha virt. eigenvalues --    0.00411   0.02634   0.02798   0.03250   0.06484
 Alpha virt. eigenvalues --    0.06659   0.07025   0.07836   0.11155   0.12426

 Mulliken charges:
               1
     1  Co   0.327985
     2  N   -0.171896
     3  O   -0.571921
     4  C    0.327817
     5  C   -0.547368
     6  H    0.199694
     7  H    0.204870
     8  H    0.199061
     9  N   -0.088695
    10  O   -0.550369
    11  C    0.274924
    12  C   -0.549429
    13  H    0.189857
    14  H    0.187602
    15  H    0.186910
    16  N   -0.169046
    17  O   -0.572061
    18  C    0.323867
    19  C   -0.546594
    20  H    0.199331
    21  H    0.200312
    22  H    0.204832
    23  N   -0.063556
    24  O   -0.554968
    25  C    0.268413
    26  C   -0.546842
    27  H    0.189308
    28  H    0.186717
    29  H    0.190334
    30  H    0.469848
    31  H    0.473239
    32  C   -0.398689
    33  H    0.184802
    34  H    0.190131
    35  C    0.239283
    36  C   -0.267436
    37  H    0.153242
    38  C   -0.553259
    39  H    0.165509
    40  H    0.164209
    41  H    0.189995
    42  C    0.152556
    43  C   -0.202538
    44  C   -0.205386
    45  C   -0.158071
    46  H    0.163776
    47  C   -0.153916
    48  H    0.153448
    49  C   -0.151357
    50  H    0.153932
    51  H    0.154017
    52  H    0.153575
 Sum of Mulliken charges =  -0.00000

 Dipole moment (field-independent basis, Debye):
    X=             -0.1337    Y=              0.1233    Z=              0.8253  Tot=              0.8451
 Quadrupole moment (field-independent basis, Debye-Ang):
   XX=           -136.7211   YY=           -166.0637   ZZ=           -168.5922
   XY=             17.3050   XZ=              1.1277   YZ=             11.6956

 Normal termination of Gaussian 16 at Thu Mar  2 08:09:02 2023.
