 Gaussian 16, Revision C.01,
 Gaussian 16:  ES64L-G16RevC.01  3-Jul-2019

 -----------------------------------------------------------
 # B3LYP/genecp em=GD3BJ int=fine scrf=(smd,solvent=acetone)
 -----------------------------------------------------------

 --------
 Template
 --------
 Symbolic Z-matrix:
 Charge =  0 Multiplicity = 1

                         Standard orientation:
 ---------------------------------------------------------------------
 Center     Atomic      Atomic             Coordinates (Angstroms)
 Number     Number       Type             X           Y           Z
 ---------------------------------------------------------------------
      1         27           0        1.360007    0.211275    0.190866
      2          7           0       -0.100154    0.729224    1.263904
      3          8           0       -0.870821   -0.089139    2.035381
      4          6           0       -0.328166    2.003193    1.286486
      5          6           0       -1.383232    2.643909    2.124060
      6          1           0       -1.956898    3.356485    1.536878
      7          1           0       -0.923302    3.182258    2.952021
      8          1           0       -2.041553    1.877632    2.525702
      9          7           0        1.376793    2.035631   -0.262346
     10          8           0        2.210958    2.567334   -1.099716
     11          6           0        0.531111    2.764204    0.412041
     12          6           0        0.441985    4.251865    0.283189
     13          1           0       -0.509580    4.545862   -0.157289
     14          1           0        1.247512    4.590423   -0.365268
     15          1           0        0.534370    4.730193    1.256210
     16          7           0        2.992989   -0.227264   -0.621119
     17          8           0        3.705066    0.560988   -1.476448
     18          6           0        3.475179   -1.381724   -0.289162
     19          6           0        4.784585   -1.904964   -0.772550
     20          1           0        5.370751   -2.289204    0.058733
     21          1           0        5.330708   -1.111393   -1.275994
     22          1           0        4.617431   -2.718874   -1.476346
     23          7           0        1.494361   -1.547175    0.872928
     24          8           0        0.597634   -2.112018    1.619055
     25          6           0        2.612844   -2.148847    0.576227
     26          6           0        2.966374   -3.519709    1.058557
     27          1           0        3.847844   -3.489683    1.697482
     28          1           0        3.171009   -4.181109    0.219136
     29          1           0        2.127611   -3.910910    1.630896
     30          1           0       -0.420644   -1.016461    1.945178
     31          1           0        3.195799    1.464693   -1.470362
     32          6           0        0.364659   -0.342996   -1.481806
     33          1           0        0.860497    0.216317   -2.273854
     34          1           0        0.576993   -1.409587   -1.547944
     35          6           0       -1.050024   -0.050578   -1.368071
     36          6           0       -1.875590   -0.996241   -0.841969
     37          1           0       -1.412529   -1.936140   -0.566554
     38          6           0       -1.529411    1.265824   -1.909531
     39          1           0       -2.490595    1.147596   -2.403434
     40          1           0       -1.636171    1.998347   -1.111653
     41          1           0       -0.809825    1.661773   -2.621503
     42          6           0       -3.304283   -0.968662   -0.619811
     43          6           0       -3.983683   -2.195046   -0.576707
     44          6           0       -4.049370    0.195769   -0.405888
     45          6           0       -5.347133   -2.251803   -0.374465
     46          1           0       -3.424530   -3.108717   -0.718700
     47          6           0       -5.412940    0.134251   -0.187851
     48          1           0       -3.556625    1.151094   -0.368058
     49          6           0       -6.071762   -1.084465   -0.183422
     50          1           0       -5.849867   -3.208022   -0.357619
     51          1           0       -5.967614    1.045594   -0.016749
     52          1           0       -7.138455   -1.126728   -0.019987
 ---------------------------------------------------------------------

 SCF Done:  E(RB3LYP) =  -1365.93175359     A.U. after   20 cycles

 The electronic state is 1-A.
 Alpha  occ. eigenvalues --  -19.16585 -19.16419 -19.12641 -19.12620 -14.40943
 Alpha  occ. eigenvalues --  -14.40883 -14.40539 -14.40369 -10.23578 -10.23510
 Alpha  occ. eigenvalues --  -10.21318 -10.21298 -10.18646 -10.18552 -10.17603
 Alpha  occ. eigenvalues --  -10.17564 -10.17537 -10.17490 -10.17475 -10.17436
 Alpha  occ. eigenvalues --  -10.17433 -10.17432 -10.17177 -10.16814 -10.16790
 Alpha  occ. eigenvalues --  -10.15950  -3.74341  -2.44376  -2.43577  -2.42493
 Alpha  occ. eigenvalues --   -1.09001  -1.08446  -1.06847  -1.06298  -0.90547
 Alpha  occ. eigenvalues --   -0.89353  -0.85837  -0.81858  -0.81037  -0.80540
 Alpha  occ. eigenvalues --   -0.75407  -0.74618  -0.74260  -0.74148  -0.70621
 Alpha  occ. eigenvalues --   -0.70500  -0.68614  -0.66422  -0.62280  -0.60291
 Alpha  occ. eigenvalues --   -0.60136  -0.58864  -0.54854  -0.53485  -0.53097
 Alpha  occ. eigenvalues --   -0.52043  -0.51246  -0.50815  -0.49541  -0.48941
 Alpha  occ. eigenvalues --   -0.47575  -0.46938  -0.46771  -0.46215  -0.45384
 Alpha  occ. eigenvalues --   -0.44441  -0.43435  -0.42568  -0.42381  -0.42189
 Alpha  occ. eigenvalues --   -0.42008  -0.41890  -0.41588  -0.40725  -0.40523
 Alpha  occ. eigenvalues --   -0.40008  -0.39718  -0.39243  -0.38833  -0.38268
 Alpha  occ. eigenvalues --   -0.38064  -0.37970  -0.37568  -0.37310  -0.36922
 Alpha  occ. eigenvalues --   -0.36538  -0.35040  -0.34306  -0.34284  -0.33380
 Alpha  occ. eigenvalues --   -0.33102  -0.30905  -0.30434  -0.28222  -0.27925
 Alpha  occ. eigenvalues --   -0.27665  -0.26767  -0.26163  -0.25055  -0.24993
 Alpha  occ. eigenvalues --   -0.24939  -0.22275  -0.20122  -0.19666  -0.19480
 Alpha virt. eigenvalues --   -0.09177  -0.03856  -0.03304  -0.00349   0.00264
 Alpha virt. eigenvalues --    0.00450   0.02601   0.02849   0.03283   0.06538
 Alpha virt. eigenvalues --    0.06773   0.06828   0.07272   0.11182   0.12348

 Mulliken charges:
               1
     1  Co   0.321861
     2  N   -0.170309
     3  O   -0.568267
     4  C    0.315697
     5  C   -0.547320
     6  H    0.196400
     7  H    0.204344
     8  H    0.201422
     9  N   -0.074576
    10  O   -0.558779
    11  C    0.272026
    12  C   -0.548775
    13  H    0.188812
    14  H    0.190801
    15  H    0.185858
    16  N   -0.160417
    17  O   -0.573446
    18  C    0.323999
    19  C   -0.545699
    20  H    0.198611
    21  H    0.199923
    22  H    0.204801
    23  N   -0.076407
    24  O   -0.555838
    25  C    0.267824
    26  C   -0.548532
    27  H    0.188910
    28  H    0.186536
    29  H    0.190214
    30  H    0.471054
    31  H    0.470119
    32  C   -0.398602
    33  H    0.184810
    34  H    0.193403
    35  C    0.225741
    36  C   -0.246585
    37  H    0.151359
    38  C   -0.553109
    39  H    0.171666
    40  H    0.186902
    41  H    0.172697
    42  C    0.156630
    43  C   -0.205356
    44  C   -0.204102
    45  C   -0.153470
    46  H    0.153957
    47  C   -0.157782
    48  H    0.160996
    49  C   -0.150832
    50  H    0.153959
    51  H    0.153308
    52  H    0.153563
 Sum of Mulliken charges =  -0.00000

 Dipole moment (field-independent basis, Debye):
    X=             -0.1311    Y=              0.4364    Z=              0.8609  Tot=              0.9741
 Quadrupole moment (field-independent basis, Debye-Ang):
   XX=           -149.7274   YY=           -148.8169   ZZ=           -172.5188
   XY=            -21.3091   XZ=              5.1275   YZ=             13.2322

 Normal termination of Gaussian 16 at Thu Mar  2 08:56:31 2023.
