 Gaussian 16, Revision C.01,
 Gaussian 16:  ES64L-G16RevC.01  3-Jul-2019

 -----------------------------------------------------------
 # B3LYP/genecp em=GD3BJ int=fine scrf=(smd,solvent=acetone)
 -----------------------------------------------------------

 --------
 Template
 --------
 Symbolic Z-matrix:
 Charge =  0 Multiplicity = 1

                         Standard orientation:
 ---------------------------------------------------------------------
 Center     Atomic      Atomic             Coordinates (Angstroms)
 Number     Number       Type             X           Y           Z
 ---------------------------------------------------------------------
      1         27           0        1.368989    0.186561    0.185641
      2          7           0       -0.030823    0.895112    1.229406
      3          8           0       -0.885046    0.192223    2.026775
      4          6           0       -0.119053    2.186595    1.207873
      5          6           0       -1.094777    2.968737    2.021538
      6          1           0       -0.570814    3.511044    2.807745
      7          1           0       -1.812076    2.291558    2.478402
      8          1           0       -1.612945    3.695409    1.400466
      9          7           0        1.584612    1.982375   -0.328105
     10          8           0        2.471328    2.390876   -1.180546
     11          6           0        0.816135    2.820313    0.310173
     12          6           0        0.878804    4.302478    0.119878
     13          1           0        1.722455    4.531393   -0.528132
     14          1           0        1.005880    4.810363    1.073728
     15          1           0       -0.032939    4.669717   -0.348916
     16          7           0        2.951405   -0.452996   -0.594485
     17          8           0        3.760168    0.230344   -1.454042
     18          6           0        3.293263   -1.648073   -0.233338
     19          6           0        4.538039   -2.330112   -0.688900
     20          1           0        4.284089   -3.143159   -1.367217
     21          1           0        5.073210   -2.750069    0.159430
     22          1           0        5.172547   -1.619661   -1.212311
     23          7           0        1.299356   -1.556080    0.915111
     24          8           0        0.341062   -1.995443    1.668687
     25          6           0        2.340618   -2.291074    0.638381
     26          6           0        2.527069   -3.683741    1.150918
     27          1           0        2.659919   -4.381454    0.326595
     28          1           0        1.643200   -3.962138    1.721417
     29          1           0        3.400292   -3.744423    1.798864
     30          1           0       -0.544597   -0.782871    1.961823
     31          1           0        3.345806    1.180285   -1.489846
     32          6           0        0.339999   -0.302923   -1.485472
     33          1           0        0.835504    0.267209   -2.269984
     34          1           0        0.529240   -1.371260   -1.585463
     35          6           0       -1.067216    0.012381   -1.341356
     36          6           0       -1.901344   -0.934385   -0.831905
     37          1           0       -1.450475   -1.888234   -0.586045
     38          6           0       -1.532282    1.351572   -1.837771
     39          1           0       -2.505804    1.264180   -2.313555
     40          1           0       -1.609399    2.064003   -1.018636
     41          1           0       -0.820311    1.752543   -2.554582
     42          6           0       -3.328503   -0.894338   -0.600283
     43          6           0       -4.025560   -2.111375   -0.607891
     44          6           0       -4.054542    0.270882   -0.333469
     45          6           0       -5.389147   -2.156788   -0.404012
     46          1           0       -3.480301   -3.026096   -0.791446
     47          6           0       -5.418400    0.219876   -0.113714
     48          1           0       -3.546177    1.215579   -0.254183
     49          6           0       -6.095378   -0.987997   -0.160257
     50          1           0       -5.906008   -3.105336   -0.427137
     51          1           0       -5.959141    1.130786    0.099105
     52          1           0       -7.162154   -1.021569    0.004743
 ---------------------------------------------------------------------

 SCF Done:  E(RB3LYP) =  -1365.93209604     A.U. after   20 cycles

 The electronic state is 1-A.
 Alpha  occ. eigenvalues --  -19.16585 -19.16379 -19.12649 -19.12593 -14.40945
 Alpha  occ. eigenvalues --  -14.40877 -14.40540 -14.40364 -10.23559 -10.23534
 Alpha  occ. eigenvalues --  -10.21320 -10.21290 -10.18633 -10.18554 -10.17598
 Alpha  occ. eigenvalues --  -10.17559 -10.17533 -10.17486 -10.17473 -10.17449
 Alpha  occ. eigenvalues --  -10.17434 -10.17419 -10.17165 -10.16814 -10.16787
 Alpha  occ. eigenvalues --  -10.15957  -3.74330  -2.44361  -2.43577  -2.42475
 Alpha  occ. eigenvalues --   -1.08990  -1.08424  -1.06848  -1.06295  -0.90538
 Alpha  occ. eigenvalues --   -0.89344  -0.85833  -0.81853  -0.81030  -0.80535
 Alpha  occ. eigenvalues --   -0.75398  -0.74621  -0.74256  -0.74155  -0.70621
 Alpha  occ. eigenvalues --   -0.70499  -0.68613  -0.66409  -0.62272  -0.60281
 Alpha  occ. eigenvalues --   -0.60132  -0.58857  -0.54848  -0.53481  -0.53085
 Alpha  occ. eigenvalues --   -0.52032  -0.51231  -0.50816  -0.49542  -0.48943
 Alpha  occ. eigenvalues --   -0.47562  -0.46927  -0.46752  -0.46198  -0.45366
 Alpha  occ. eigenvalues --   -0.44437  -0.43470  -0.42566  -0.42393  -0.42180
 Alpha  occ. eigenvalues --   -0.42035  -0.41901  -0.41539  -0.40714  -0.40519
 Alpha  occ. eigenvalues --   -0.39959  -0.39740  -0.39259  -0.38832  -0.38219
 Alpha  occ. eigenvalues --   -0.38060  -0.38006  -0.37578  -0.37301  -0.36934
 Alpha  occ. eigenvalues --   -0.36524  -0.35033  -0.34300  -0.34264  -0.33388
 Alpha  occ. eigenvalues --   -0.33105  -0.30865  -0.30463  -0.28191  -0.27920
 Alpha  occ. eigenvalues --   -0.27668  -0.26732  -0.26164  -0.25052  -0.24977
 Alpha  occ. eigenvalues --   -0.24929  -0.22273  -0.20115  -0.19629  -0.19539
 Alpha virt. eigenvalues --   -0.09170  -0.03810  -0.03293  -0.00361   0.00286
 Alpha virt. eigenvalues --    0.00467   0.02613   0.02837   0.03274   0.06497
 Alpha virt. eigenvalues --    0.06698   0.06796   0.07458   0.11200   0.12434

 Mulliken charges:
               1
     1  Co   0.320919
     2  N   -0.172508
     3  O   -0.569211
     4  C    0.314142
     5  C   -0.547948
     6  H    0.204381
     7  H    0.201257
     8  H    0.197166
     9  N   -0.073912
    10  O   -0.558303
    11  C    0.273617
    12  C   -0.547589
    13  H    0.190533
    14  H    0.185775
    15  H    0.188866
    16  N   -0.160563
    17  O   -0.573417
    18  C    0.324145
    19  C   -0.546224
    20  H    0.204564
    21  H    0.198703
    22  H    0.200081
    23  N   -0.075445
    24  O   -0.555335
    25  C    0.267037
    26  C   -0.548184
    27  H    0.186495
    28  H    0.190004
    29  H    0.188739
    30  H    0.472209
    31  H    0.469923
    32  C   -0.399409
    33  H    0.185188
    34  H    0.191859
    35  C    0.228162
    36  C   -0.247608
    37  H    0.153322
    38  C   -0.553325
    39  H    0.171539
    40  H    0.187060
    41  H    0.172583
    42  C    0.154772
    43  C   -0.204679
    44  C   -0.202333
    45  C   -0.153641
    46  H    0.153810
    47  C   -0.157850
    48  H    0.160729
    49  C   -0.150880
    50  H    0.153967
    51  H    0.153285
    52  H    0.153534
 Sum of Mulliken charges =  -0.00000

 Dipole moment (field-independent basis, Debye):
    X=             -0.1496    Y=              0.4043    Z=              0.8300  Tot=              0.9353
 Quadrupole moment (field-independent basis, Debye-Ang):
   XX=           -154.7126   YY=           -143.1368   ZZ=           -173.2890
   XY=            -20.2762   XZ=              7.1480   YZ=             12.2755

 Normal termination of Gaussian 16 at Thu Mar  2 08:52:13 2023.
