 Gaussian 16, Revision C.01,
 Gaussian 16:  ES64L-G16RevC.01  3-Jul-2019

 -----------------------------------------------------------
 # B3LYP/genecp em=GD3BJ int=fine scrf=(smd,solvent=acetone)
 -----------------------------------------------------------

 --------
 Template
 --------
 Symbolic Z-matrix:
 Charge =  0 Multiplicity = 1

                         Standard orientation:
 ---------------------------------------------------------------------
 Center     Atomic      Atomic             Coordinates (Angstroms)
 Number     Number       Type             X           Y           Z
 ---------------------------------------------------------------------
      1         27           0        1.360195    0.226986    0.225919
      2          7           0       -0.140563    0.442667    1.344573
      3          8           0       -0.791174   -0.546551    2.018886
      4          6           0       -0.542362    1.664015    1.485224
      5          6           0       -1.687822    2.070973    2.347279
      6          1           0       -1.383482    2.853618    3.038880
      7          1           0       -2.050519    1.209633    2.901769
      8          1           0       -2.494604    2.459467    1.728577
      9          7           0        1.138644    2.075093   -0.034803
     10          8           0        1.889685    2.793162   -0.811482
     11          6           0        0.207883    2.615207    0.701924
     12          6           0       -0.081861    4.082065    0.719207
     13          1           0       -1.112566    4.272172    0.426629
     14          1           0        0.588679    4.576149    0.018852
     15          1           0        0.075794    4.495367    1.714219
     16          7           0        3.014439    0.078850   -0.645969
     17          8           0        3.598406    1.030729   -1.428676
     18          6           0        3.641622   -1.035487   -0.446229
     19          6           0        4.987482   -1.344234   -1.007214
     20          1           0        5.419020   -0.443617   -1.436202
     21          1           0        4.895024   -2.097210   -1.788364
     22          1           0        5.641583   -1.736599   -0.232338
     23          7           0        1.732517   -1.558065    0.728746
     24          8           0        0.936368   -2.299143    1.435852
     25          6           0        2.905831   -1.984748    0.353444
     26          6           0        3.438541   -3.340605    0.691189
     27          1           0        3.706048   -3.883490   -0.212919
     28          1           0        2.668184   -3.890197    1.228420
     29          1           0        4.322826   -3.262735    1.322198
     30          1           0       -0.199076   -1.383847    1.861906
     31          1           0        2.987233    1.860969   -1.315451
     32          6           0        0.399329   -0.287237   -1.485720
     33          1           0        0.876093    0.333591   -2.243489
     34          1           0        0.660779   -1.339181   -1.599145
     35          6           0       -1.033582   -0.070789   -1.409603
     36          6           0       -1.828859   -1.030485   -0.870824
     37          1           0       -1.333782   -1.894839   -0.445779
     38          6           0       -1.553919    1.230793   -1.949403
     39          1           0       -1.760918    1.131803   -3.014476
     40          1           0       -2.467595    1.533404   -1.445785
     41          1           0       -0.804734    2.008677   -1.834032
     42          6           0       -3.268577   -1.023519   -0.697790
     43          6           0       -4.157561   -0.474320   -1.625908
     44          6           0       -3.799058   -1.627265    0.448985
     45          6           0       -5.521418   -0.504611   -1.399131
     46          1           0       -3.783048   -0.062698   -2.548653
     47          6           0       -5.159849   -1.638183    0.680150
     48          1           0       -3.123361   -2.060913    1.171073
     49          6           0       -6.028681   -1.074281   -0.242516
     50          1           0       -6.194482   -0.083092   -2.131858
     51          1           0       -5.548615   -2.094419    1.579128
     52          1           0       -7.094115   -1.089763   -0.065829
 ---------------------------------------------------------------------

 SCF Done:  E(RB3LYP) =  -1365.93131884     A.U. after   21 cycles

 The electronic state is 1-A.
 Alpha  occ. eigenvalues --  -19.16653 -19.16536 -19.12769 -19.12674 -14.40951
 Alpha  occ. eigenvalues --  -14.40943 -14.40608 -14.40382 -10.23653 -10.23466
 Alpha  occ. eigenvalues --  -10.21398 -10.21332 -10.18485 -10.18414 -10.17516
 Alpha  occ. eigenvalues --  -10.17482 -10.17463 -10.17463 -10.17440 -10.17409
 Alpha  occ. eigenvalues --  -10.17366 -10.17318 -10.16958 -10.16824 -10.16797
 Alpha  occ. eigenvalues --  -10.15810  -3.74474  -2.44507  -2.43684  -2.42646
 Alpha  occ. eigenvalues --   -1.09074  -1.08538  -1.06867  -1.06331  -0.90608
 Alpha  occ. eigenvalues --   -0.89398  -0.85742  -0.81922  -0.80943  -0.80584
 Alpha  occ. eigenvalues --   -0.75275  -0.74634  -0.74175  -0.74163  -0.70650
 Alpha  occ. eigenvalues --   -0.70520  -0.68426  -0.66405  -0.62322  -0.60303
 Alpha  occ. eigenvalues --   -0.60015  -0.58752  -0.54911  -0.53539  -0.52916
 Alpha  occ. eigenvalues --   -0.52106  -0.51305  -0.50853  -0.49447  -0.48998
 Alpha  occ. eigenvalues --   -0.47625  -0.47028  -0.46635  -0.46069  -0.45273
 Alpha  occ. eigenvalues --   -0.44482  -0.43383  -0.42795  -0.42283  -0.42255
 Alpha  occ. eigenvalues --   -0.42026  -0.41876  -0.41544  -0.40915  -0.40581
 Alpha  occ. eigenvalues --   -0.39993  -0.39632  -0.39263  -0.38800  -0.38283
 Alpha  occ. eigenvalues --   -0.38102  -0.38030  -0.37600  -0.37373  -0.36745
 Alpha  occ. eigenvalues --   -0.36442  -0.34957  -0.34314  -0.34226  -0.33256
 Alpha  occ. eigenvalues --   -0.32902  -0.30951  -0.30424  -0.28320  -0.28016
 Alpha  occ. eigenvalues --   -0.27749  -0.26433  -0.26233  -0.25142  -0.25035
 Alpha  occ. eigenvalues --   -0.24903  -0.22375  -0.20221  -0.19819  -0.19470
 Alpha virt. eigenvalues --   -0.09175  -0.03770  -0.03382  -0.00431   0.00248
 Alpha virt. eigenvalues --    0.00524   0.02592   0.02826   0.03339   0.05945
 Alpha virt. eigenvalues --    0.06719   0.06810   0.07831   0.11030   0.12222

 Mulliken charges:
               1
     1  Co   0.324297
     2  N   -0.170855
     3  O   -0.566657
     4  C    0.324951
     5  C   -0.547928
     6  H    0.198479
     7  H    0.200218
     8  H    0.204174
     9  N   -0.078952
    10  O   -0.559882
    11  C    0.272333
    12  C   -0.549155
    13  H    0.187204
    14  H    0.190545
    15  H    0.188390
    16  N   -0.160440
    17  O   -0.573065
    18  C    0.324571
    19  C   -0.545674
    20  H    0.200424
    21  H    0.205311
    22  H    0.198983
    23  N   -0.078961
    24  O   -0.556550
    25  C    0.270181
    26  C   -0.547976
    27  H    0.187095
    28  H    0.190428
    29  H    0.189518
    30  H    0.471701
    31  H    0.471057
    32  C   -0.402660
    33  H    0.189327
    34  H    0.196287
    35  C    0.230549
    36  C   -0.244727
    37  H    0.147880
    38  C   -0.555139
    39  H    0.180073
    40  H    0.168773
    41  H    0.181647
    42  C    0.137654
    43  C   -0.200109
    44  C   -0.197026
    45  C   -0.158704
    46  H    0.158950
    47  C   -0.156248
    48  H    0.154121
    49  C   -0.151897
    50  H    0.152658
    51  H    0.152685
    52  H    0.152141
 Sum of Mulliken charges =  -0.00000

 Dipole moment (field-independent basis, Debye):
    X=              0.1671    Y=              0.4367    Z=              0.7355  Tot=              0.8715
 Quadrupole moment (field-independent basis, Debye-Ang):
   XX=           -144.8732   YY=           -163.5102   ZZ=           -163.6431
   XY=            -22.1859   XZ=              1.9215   YZ=             10.8189

 Normal termination of Gaussian 16 at Thu Mar  2 08:24:25 2023.
