 Gaussian 16, Revision C.01,
 Gaussian 16:  ES64L-G16RevC.01  3-Jul-2019

 -----------------------------------------------------------
 # B3LYP/genecp em=GD3BJ int=fine scrf=(smd,solvent=acetone)
 -----------------------------------------------------------

 --------
 Template
 --------
 Symbolic Z-matrix:
 Charge =  0 Multiplicity = 1

                         Standard orientation:
 ---------------------------------------------------------------------
 Center     Atomic      Atomic             Coordinates (Angstroms)
 Number     Number       Type             X           Y           Z
 ---------------------------------------------------------------------
      1         27           0       -1.359246    0.201529    0.190674
      2          7           0       -1.423673   -1.553525    0.854827
      3          8           0       -0.453404   -2.172471    1.586359
      4          6           0       -2.501991   -2.206791    0.560549
      5          6           0       -2.775632   -3.605323    0.998313
      6          1           0       -3.761320   -3.674145    1.452530
      7          1           0       -2.017375   -3.919117    1.711188
      8          1           0       -2.751347   -4.272178    0.137872
      9          7           0       -2.987732   -0.285190   -0.611517
     10          8           0       -3.687388    0.504665   -1.359955
     11          6           0       -3.421771   -1.465971   -0.267065
     12          6           0       -4.739462   -2.019199   -0.707678
     13          1           0       -4.602054   -2.957119   -1.241849
     14          1           0       -5.214178   -1.295321   -1.366866
     15          1           0       -5.389104   -2.200233    0.147414
     16          7           0       -1.416774    2.016700   -0.271193
     17          8           0       -2.244476    2.588473   -1.195359
     18          6           0       -0.596928    2.776975    0.381437
     19          6           0       -0.519655    4.255599    0.204778
     20          1           0       -0.489727    4.752160    1.171463
     21          1           0       -1.380630    4.598723   -0.363359
     22          1           0        0.384611    4.518118   -0.342361
     23          7           0        0.080336    0.770638    1.285834
     24          8           0        0.767320   -0.010996    2.058686
     25          6           0        0.261587    2.062564    1.294421
     26          6           0        1.273925    2.744728    2.159593
     27          1           0        1.880189    3.435962    1.578693
     28          1           0        1.911813    1.983674    2.605564
     29          1           0        0.786055    3.302395    2.958772
     30          1           0        0.186284   -1.398921    1.857241
     31          1           0       -2.923835    1.844787   -1.416784
     32          6           0       -0.375735   -0.322802   -1.497479
     33          1           0       -0.580386   -1.388751   -1.590328
     34          1           0       -0.873025    0.247718   -2.280407
     35          6           0        1.036704   -0.023310   -1.369653
     36          6           0        1.865140   -0.976038   -0.861650
     37          1           0        1.407893   -1.926791   -0.615540
     38          6           0        1.511742    1.307259   -1.880090
     39          1           0        1.614675    2.021194   -1.065137
     40          1           0        2.475340    1.203070   -2.372648
     41          1           0        0.793348    1.715169   -2.586402
     42          6           0        3.291028   -0.944222   -0.624304
     43          6           0        3.977958   -2.167042   -0.600595
     44          6           0        4.026130    0.219735   -0.376295
     45          6           0        5.339375   -2.219885   -0.384442
     46          1           0        3.426502   -3.080960   -0.768468
     47          6           0        5.387589    0.161762   -0.144455
     48          1           0        3.526704    1.170755   -0.321107
     49          6           0        6.054316   -1.052565   -0.159820
     50          1           0        5.848043   -3.173104   -0.382635
     51          1           0        5.934319    1.072578    0.053436
     52          1           0        7.119425   -1.091514    0.014621
 ---------------------------------------------------------------------

 SCF Done:  E(RB3LYP) =  -1365.93199185     A.U. after   21 cycles

 The electronic state is 1-A.
 Alpha  occ. eigenvalues --  -19.16654 -19.16460 -19.12719 -19.12528 -14.41087
 Alpha  occ. eigenvalues --  -14.40816 -14.40456 -14.40366 -10.23649 -10.23582
 Alpha  occ. eigenvalues --  -10.21240 -10.21232 -10.18648 -10.18541 -10.17607
 Alpha  occ. eigenvalues --  -10.17565 -10.17542 -10.17498 -10.17477 -10.17464
 Alpha  occ. eigenvalues --  -10.17434 -10.17423 -10.17190 -10.16796 -10.16786
 Alpha  occ. eigenvalues --  -10.15944  -3.74295  -2.44324  -2.43569  -2.42419
 Alpha  occ. eigenvalues --   -1.09003  -1.08434  -1.06915  -1.06294  -0.90562
 Alpha  occ. eigenvalues --   -0.89376  -0.85841  -0.81834  -0.81031  -0.80530
 Alpha  occ. eigenvalues --   -0.75408  -0.74621  -0.74261  -0.74158  -0.70610
 Alpha  occ. eigenvalues --   -0.70489  -0.68613  -0.66420  -0.62274  -0.60292
 Alpha  occ. eigenvalues --   -0.60143  -0.58868  -0.54847  -0.53545  -0.53028
 Alpha  occ. eigenvalues --   -0.52058  -0.51271  -0.50815  -0.49526  -0.48946
 Alpha  occ. eigenvalues --   -0.47648  -0.46881  -0.46753  -0.46212  -0.45369
 Alpha  occ. eigenvalues --   -0.44427  -0.43460  -0.42541  -0.42480  -0.42292
 Alpha  occ. eigenvalues --   -0.42041  -0.41850  -0.41522  -0.40667  -0.40562
 Alpha  occ. eigenvalues --   -0.39970  -0.39841  -0.39128  -0.38842  -0.38265
 Alpha  occ. eigenvalues --   -0.38057  -0.37930  -0.37533  -0.37273  -0.36929
 Alpha  occ. eigenvalues --   -0.36560  -0.34877  -0.34539  -0.34267  -0.33351
 Alpha  occ. eigenvalues --   -0.33108  -0.30914  -0.30493  -0.28273  -0.27774
 Alpha  occ. eigenvalues --   -0.27617  -0.26787  -0.26204  -0.25063  -0.25001
 Alpha  occ. eigenvalues --   -0.24906  -0.22272  -0.19878  -0.19770  -0.19588
 Alpha virt. eigenvalues --   -0.09165  -0.03821  -0.03303  -0.00300   0.00282
 Alpha virt. eigenvalues --    0.00458   0.02656   0.02816   0.03267   0.06418
 Alpha virt. eigenvalues --    0.06748   0.06873   0.07442   0.11190   0.12319

 Mulliken charges:
               1
     1  Co   0.317181
     2  N   -0.168563
     3  O   -0.572557
     4  C    0.323825
     5  C   -0.546894
     6  H    0.198839
     7  H    0.199747
     8  H    0.204330
     9  N   -0.064602
    10  O   -0.555724
    11  C    0.267165
    12  C   -0.547418
    13  H    0.186453
    14  H    0.189886
    15  H    0.188707
    16  N   -0.167263
    17  O   -0.572199
    18  C    0.328702
    19  C   -0.546820
    20  H    0.197451
    21  H    0.200284
    22  H    0.205179
    23  N   -0.079272
    24  O   -0.552573
    25  C    0.259460
    26  C   -0.548093
    27  H    0.183710
    28  H    0.190913
    29  H    0.189113
    30  H    0.471875
    31  H    0.469322
    32  C   -0.399317
    33  H    0.192237
    34  H    0.183867
    35  C    0.226983
    36  C   -0.243756
    37  H    0.150592
    38  C   -0.554021
    39  H    0.187560
    40  H    0.171746
    41  H    0.171896
    42  C    0.155523
    43  C   -0.205248
    44  C   -0.203201
    45  C   -0.153461
    46  H    0.153919
    47  C   -0.157587
    48  H    0.161588
    49  C   -0.150644
    50  H    0.154004
    51  H    0.153439
    52  H    0.153717
 Sum of Mulliken charges =  -0.00000

 Dipole moment (field-independent basis, Debye):
    X=              0.2539    Y=              0.4000    Z=              0.6358  Tot=              0.7929
 Quadrupole moment (field-independent basis, Debye-Ang):
   XX=           -157.7973   YY=           -138.8947   ZZ=           -174.5444
   XY=             18.8771   XZ=             -9.1773   YZ=              8.7000

 Normal termination of Gaussian 16 at Thu Mar  2 08:49:26 2023.
