 Gaussian 16, Revision C.01,
 Gaussian 16:  ES64L-G16RevC.01  3-Jul-2019

 -----------------------------------------------------------
 # B3LYP/genecp em=GD3BJ int=fine scrf=(smd,solvent=acetone)
 -----------------------------------------------------------

 --------
 Template
 --------
 Symbolic Z-matrix:
 Charge =  0 Multiplicity = 1

                         Standard orientation:
 ---------------------------------------------------------------------
 Center     Atomic      Atomic             Coordinates (Angstroms)
 Number     Number       Type             X           Y           Z
 ---------------------------------------------------------------------
      1         27           0        1.362415    0.205812    0.189922
      2          7           0       -0.084591    0.774796    1.254882
      3          8           0       -0.879898   -0.014143    2.032094
      4          6           0       -0.276084    2.054988    1.265798
      5          6           0       -1.313583    2.733094    2.095951
      6          1           0       -1.862789    3.459761    1.502670
      7          1           0       -0.839738    3.261631    2.922408
      8          1           0       -1.996483    1.989997    2.500188
      9          7           0        1.433507    2.025391   -0.277601
     10          8           0        2.284496    2.525544   -1.117567
     11          6           0        0.606383    2.783592    0.386886
     12          6           0        0.558867    4.271750    0.243291
     13          1           0        1.377896    4.581886   -0.402488
     14          1           0        0.657345    4.756892    1.212304
     15          1           0       -0.381148    4.586884   -0.207243
     16          7           0        2.984441   -0.286857   -0.613575
     17          8           0        3.724352    0.475263   -1.468934
     18          6           0        3.428700   -1.454555   -0.275072
     19          6           0        4.722555   -2.021475   -0.751106
     20          1           0        4.532375   -2.841531   -1.441728
     21          1           0        5.298413   -2.408858    0.086007
     22          1           0        5.290423   -1.251256   -1.266525
     23          7           0        1.440652   -1.551626    0.882603
     24          8           0        0.525080   -2.084196    1.629475
     25          6           0        2.539908   -2.190084    0.590959
     26          6           0        2.848027   -3.569549    1.079853
     27          1           0        1.998040   -3.928897    1.656508
     28          1           0        3.732016   -3.566320    1.715894
     29          1           0        3.027292   -4.242064    0.243418
     30          1           0       -0.458893   -0.955616    1.947763
     31          1           0        3.240480    1.392786   -1.472825
     32          6           0        0.358624   -0.329069   -1.483558
     33          1           0        0.854649    0.234025   -2.272808
     34          1           0        0.564766   -1.396195   -1.560004
     35          6           0       -1.054046   -0.030260   -1.361433
     36          6           0       -1.881338   -0.976465   -0.838929
     37          1           0       -1.419808   -1.919055   -0.570173
     38          6           0       -1.529302    1.292667   -1.890491
     39          1           0       -0.807708    1.694052   -2.597346
     40          1           0       -2.489885    1.181384   -2.387214
     41          1           0       -1.636174    2.017161   -1.085319
     42          6           0       -3.309563   -0.948896   -0.614384
     43          6           0       -4.055907    0.214346   -0.398328
     44          6           0       -3.987761   -2.176129   -0.573138
     45          6           0       -5.419480    0.150728   -0.180623
     46          1           0       -3.564612    1.170318   -0.358759
     47          6           0       -5.351084   -2.234925   -0.370997
     48          1           0       -3.427608   -3.088990   -0.716452
     49          6           0       -6.077038   -1.068678   -0.178321
     50          1           0       -5.975271    1.061130   -0.008140
     51          1           0       -5.852621   -3.191806   -0.355649
     52          1           0       -7.143729   -1.112390   -0.015237
 ---------------------------------------------------------------------

 SCF Done:  E(RB3LYP) =  -1365.93189399     A.U. after   20 cycles

 The electronic state is 1-A.
 Alpha  occ. eigenvalues --  -19.16581 -19.16407 -19.12642 -19.12613 -14.40940
 Alpha  occ. eigenvalues --  -14.40880 -14.40539 -14.40362 -10.23571 -10.23513
 Alpha  occ. eigenvalues --  -10.21318 -10.21295 -10.18647 -10.18556 -10.17601
 Alpha  occ. eigenvalues --  -10.17562 -10.17536 -10.17488 -10.17474 -10.17437
 Alpha  occ. eigenvalues --  -10.17436 -10.17427 -10.17172 -10.16814 -10.16789
 Alpha  occ. eigenvalues --  -10.15959  -3.74332  -2.44367  -2.43571  -2.42481
 Alpha  occ. eigenvalues --   -1.08996  -1.08438  -1.06844  -1.06295  -0.90543
 Alpha  occ. eigenvalues --   -0.89348  -0.85834  -0.81855  -0.81035  -0.80537
 Alpha  occ. eigenvalues --   -0.75408  -0.74618  -0.74259  -0.74149  -0.70621
 Alpha  occ. eigenvalues --   -0.70500  -0.68619  -0.66416  -0.62276  -0.60287
 Alpha  occ. eigenvalues --   -0.60135  -0.58865  -0.54851  -0.53482  -0.53097
 Alpha  occ. eigenvalues --   -0.52038  -0.51240  -0.50814  -0.49537  -0.48939
 Alpha  occ. eigenvalues --   -0.47570  -0.46932  -0.46766  -0.46216  -0.45380
 Alpha  occ. eigenvalues --   -0.44438  -0.43442  -0.42553  -0.42386  -0.42183
 Alpha  occ. eigenvalues --   -0.42015  -0.41892  -0.41571  -0.40725  -0.40520
 Alpha  occ. eigenvalues --   -0.40002  -0.39720  -0.39249  -0.38835  -0.38253
 Alpha  occ. eigenvalues --   -0.38065  -0.37977  -0.37569  -0.37311  -0.36933
 Alpha  occ. eigenvalues --   -0.36534  -0.35039  -0.34304  -0.34278  -0.33376
 Alpha  occ. eigenvalues --   -0.33097  -0.30892  -0.30447  -0.28211  -0.27923
 Alpha  occ. eigenvalues --   -0.27662  -0.26769  -0.26158  -0.25052  -0.24987
 Alpha  occ. eigenvalues --   -0.24935  -0.22274  -0.20109  -0.19654  -0.19493
 Alpha virt. eigenvalues --   -0.09173  -0.03845  -0.03298  -0.00348   0.00276
 Alpha virt. eigenvalues --    0.00454   0.02606   0.02848   0.03281   0.06529
 Alpha virt. eigenvalues --    0.06768   0.06809   0.07335   0.11192   0.12393

 Mulliken charges:
               1
     1  Co   0.321501
     2  N   -0.170575
     3  O   -0.568453
     4  C    0.314944
     5  C   -0.547419
     6  H    0.196341
     7  H    0.204509
     8  H    0.201385
     9  N   -0.074452
    10  O   -0.558729
    11  C    0.272624
    12  C   -0.548614
    13  H    0.190813
    14  H    0.185803
    15  H    0.188882
    16  N   -0.160391
    17  O   -0.573499
    18  C    0.324056
    19  C   -0.545963
    20  H    0.204622
    21  H    0.198770
    22  H    0.199963
    23  N   -0.076087
    24  O   -0.555665
    25  C    0.267714
    26  C   -0.548583
    27  H    0.190190
    28  H    0.188800
    29  H    0.186611
    30  H    0.471279
    31  H    0.470085
    32  C   -0.398819
    33  H    0.184874
    34  H    0.192985
    35  C    0.226241
    36  C   -0.247034
    37  H    0.151865
    38  C   -0.553278
    39  H    0.172745
    40  H    0.171871
    41  H    0.186943
    42  C    0.157009
    43  C   -0.203925
    44  C   -0.205524
    45  C   -0.157758
    46  H    0.160769
    47  C   -0.153433
    48  H    0.154009
    49  C   -0.150825
    50  H    0.153300
    51  H    0.153960
    52  H    0.153561
 Sum of Mulliken charges =  -0.00000

 Dipole moment (field-independent basis, Debye):
    X=             -0.1436    Y=              0.4241    Z=              0.8507  Tot=              0.9614
 Quadrupole moment (field-independent basis, Debye-Ang):
   XX=           -151.1020   YY=           -147.2863   ZZ=           -172.7106
   XY=            -21.1902   XZ=              5.6900   YZ=             12.9195

 Normal termination of Gaussian 16 at Thu Mar  2 08:53:38 2023.
