 Gaussian 16, Revision C.01,
 Gaussian 16:  ES64L-G16RevC.01  3-Jul-2019

 -----------------------------------------------------------
 # B3LYP/genecp em=GD3BJ int=fine scrf=(smd,solvent=acetone)
 -----------------------------------------------------------

 --------
 Template
 --------
 Symbolic Z-matrix:
 Charge =  0 Multiplicity = 1

                         Standard orientation:
 ---------------------------------------------------------------------
 Center     Atomic      Atomic             Coordinates (Angstroms)
 Number     Number       Type             X           Y           Z
 ---------------------------------------------------------------------
      1         27           0        1.384046    0.088304    0.317556
      2          7           0        0.045327   -0.645172    1.410124
      3          8           0       -0.159147   -1.971130    1.658516
      4          6           0       -0.709722    0.224208    1.999749
      5          6           0       -1.795537   -0.126914    2.957918
      6          1           0       -2.764019    0.050083    2.492559
      7          1           0       -1.728599    0.489627    3.850998
      8          1           0       -1.719428   -1.177276    3.227220
      9          7           0        0.525883    1.701355    0.741150
     10          8           0        0.889225    2.858175    0.281525
     11          6           0       -0.431191    1.586393    1.618620
     12          6           0       -1.199180    2.749801    2.158114
     13          1           0       -0.864925    3.651134    1.648566
     14          1           0       -1.029842    2.864609    3.227900
     15          1           0       -2.265141    2.612127    1.989594
     16          7           0        2.874965    0.856845   -0.536660
     17          8           0        2.998165    2.157613   -0.932221
     18          6           0        3.868067    0.050569   -0.734228
     19          6           0        5.160056    0.459738   -1.354231
     20          1           0        5.196020    1.542514   -1.442913
     21          1           0        5.244910    0.021120   -2.347275
     22          1           0        5.996895    0.108601   -0.755313
     23          7           0        2.412619   -1.493162    0.158142
     24          8           0        2.016025   -2.661322    0.557733
     25          6           0        3.609243   -1.308294   -0.324838
     26          6           0        4.619811   -2.400919   -0.469257
     27          1           0        4.945563   -2.486917   -1.503790
     28          1           0        4.162655   -3.337303   -0.155811
     29          1           0        5.492105   -2.206515    0.153187
     30          1           0        0.662622   -2.436741    1.233173
     31          1           0        2.165661    2.621255   -0.527138
     32          6           0        0.390742   -0.238211   -1.428339
     33          1           0        0.959175    0.353647   -2.145198
     34          1           0        0.537629   -1.308372   -1.573100
     35          6           0       -1.014687    0.129499   -1.414386
     36          6           0       -1.939263   -0.789685   -1.034664
     37          1           0       -1.563923   -1.737539   -0.668756
     38          6           0       -1.359810    1.523347   -1.851906
     39          1           0       -2.297162    1.855859   -1.415269
     40          1           0       -0.573370    2.214231   -1.561775
     41          1           0       -1.445386    1.562279   -2.937399
     42          6           0       -3.382783   -0.670324   -0.975685
     43          6           0       -4.060214   -1.387824    0.019117
     44          6           0       -4.143087    0.087424   -1.871219
     45          6           0       -5.431210   -1.301917    0.151785
     46          1           0       -3.489130   -2.000968    0.701261
     47          6           0       -5.518666    0.156988   -1.745762
     48          1           0       -3.661759    0.587302   -2.695135
     49          6           0       -6.168042   -0.521989   -0.727586
     50          1           0       -5.931519   -1.849961    0.937127
     51          1           0       -6.089628    0.743401   -2.451126
     52          1           0       -7.241518   -0.457510   -0.628511
 ---------------------------------------------------------------------

 SCF Done:  E(RB3LYP) =  -1365.93136650     A.U. after   20 cycles

 The electronic state is 1-A.
 Alpha  occ. eigenvalues --  -19.16726 -19.16631 -19.12824 -19.12747 -14.41032
 Alpha  occ. eigenvalues --  -14.40988 -14.40521 -14.40465 -10.23708 -10.23479
 Alpha  occ. eigenvalues --  -10.21417 -10.21367 -10.18619 -10.18410 -10.17597
 Alpha  occ. eigenvalues --  -10.17576 -10.17520 -10.17473 -10.17471 -10.17465
 Alpha  occ. eigenvalues --  -10.17456 -10.17368 -10.16943 -10.16823 -10.16817
 Alpha  occ. eigenvalues --  -10.15473  -3.74623  -2.44645  -2.43801  -2.42832
 Alpha  occ. eigenvalues --   -1.09090  -1.08546  -1.06962  -1.06408  -0.90654
 Alpha  occ. eigenvalues --   -0.89460  -0.85826  -0.81961  -0.80905  -0.80646
 Alpha  occ. eigenvalues --   -0.75343  -0.74657  -0.74261  -0.74204  -0.70667
 Alpha  occ. eigenvalues --   -0.70548  -0.68308  -0.66408  -0.62356  -0.60354
 Alpha  occ. eigenvalues --   -0.60116  -0.58813  -0.54918  -0.53584  -0.52969
 Alpha  occ. eigenvalues --   -0.52129  -0.51364  -0.50931  -0.49417  -0.49036
 Alpha  occ. eigenvalues --   -0.47709  -0.47011  -0.46627  -0.46190  -0.45405
 Alpha  occ. eigenvalues --   -0.44555  -0.43327  -0.42777  -0.42460  -0.42285
 Alpha  occ. eigenvalues --   -0.42095  -0.41946  -0.41503  -0.40900  -0.40614
 Alpha  occ. eigenvalues --   -0.40012  -0.39593  -0.38970  -0.38857  -0.38480
 Alpha  occ. eigenvalues --   -0.38081  -0.38012  -0.37625  -0.37362  -0.36793
 Alpha  occ. eigenvalues --   -0.36122  -0.34860  -0.34399  -0.34331  -0.33247
 Alpha  occ. eigenvalues --   -0.32887  -0.31008  -0.30650  -0.28399  -0.28006
 Alpha  occ. eigenvalues --   -0.27784  -0.26660  -0.26392  -0.25272  -0.25106
 Alpha  occ. eigenvalues --   -0.25004  -0.22415  -0.20008  -0.19902  -0.19778
 Alpha virt. eigenvalues --   -0.09332  -0.03853  -0.03461  -0.00499   0.00027
 Alpha virt. eigenvalues --    0.00374   0.02614   0.02942   0.03220   0.06151
 Alpha virt. eigenvalues --    0.06719   0.06785   0.07824   0.11065   0.12469

 Mulliken charges:
               1
     1  Co   0.336841
     2  N   -0.167960
     3  O   -0.570997
     4  C    0.329294
     5  C   -0.547781
     6  H    0.203688
     7  H    0.196610
     8  H    0.198155
     9  N   -0.084688
    10  O   -0.552501
    11  C    0.277195
    12  C   -0.548865
    13  H    0.190452
    14  H    0.189275
    15  H    0.188383
    16  N   -0.170751
    17  O   -0.572766
    18  C    0.327185
    19  C   -0.546077
    20  H    0.200464
    21  H    0.205477
    22  H    0.199230
    23  N   -0.076916
    24  O   -0.557309
    25  C    0.269460
    26  C   -0.547737
    27  H    0.187177
    28  H    0.190376
    29  H    0.189540
    30  H    0.470526
    31  H    0.471027
    32  C   -0.407028
    33  H    0.195323
    34  H    0.197919
    35  C    0.233432
    36  C   -0.266687
    37  H    0.154428
    38  C   -0.561859
    39  H    0.165969
    40  H    0.183776
    41  H    0.174695
    42  C    0.146572
    43  C   -0.203624
    44  C   -0.201354
    45  C   -0.156479
    46  H    0.156779
    47  C   -0.157940
    48  H    0.161278
    49  C   -0.151573
    50  H    0.153861
    51  H    0.153554
    52  H    0.152948
 Sum of Mulliken charges =  -0.00000

 Dipole moment (field-independent basis, Debye):
    X=              0.2881    Y=              0.3977    Z=              0.9115  Tot=              1.0354
 Quadrupole moment (field-independent basis, Debye-Ang):
   XX=           -132.8732   YY=           -183.7879   ZZ=           -154.1539
   XY=             -8.3480   XZ=             -9.7335   YZ=              4.3343

 Normal termination of Gaussian 16 at Thu Mar  2 08:44:24 2023.
