 Gaussian 16, Revision C.01,
 Gaussian 16:  ES64L-G16RevC.01  3-Jul-2019

 -----------------------------------------------------------
 # B3LYP/genecp em=GD3BJ int=fine scrf=(smd,solvent=acetone)
 -----------------------------------------------------------

 --------
 Template
 --------
 Symbolic Z-matrix:
 Charge =  0 Multiplicity = 1

                         Standard orientation:
 ---------------------------------------------------------------------
 Center     Atomic      Atomic             Coordinates (Angstroms)
 Number     Number       Type             X           Y           Z
 ---------------------------------------------------------------------
      1         27           0        1.366373    0.192519    0.197531
      2          7           0        2.975702   -0.340842   -0.605082
      3          8           0        3.775556    0.428751   -1.396768
      4          6           0        3.347467   -1.550062   -0.331405
      5          6           0        4.617099   -2.159813   -0.819193
      6          1           0        4.396573   -2.908149   -1.578890
      7          1           0        5.142781   -2.648656   -0.002650
      8          1           0        5.246373   -1.389531   -1.257481
      9          7           0        1.334408   -1.602358    0.784591
     10          8           0        0.375691   -2.125859    1.483415
     11          6           0        2.400938   -2.284356    0.472861
     12          6           0        2.620237   -3.706077    0.881682
     13          1           0        1.734956   -4.053697    1.410377
     14          1           0        3.482422   -3.790478    1.541662
     15          1           0        2.790265   -4.333904    0.009471
     16          7           0       -0.078712    0.779553    1.254608
     17          8           0       -0.931308   -0.011877    1.964177
     18          6           0       -0.216028    2.064137    1.322350
     19          6           0       -1.258313    2.750449    2.137312
     20          1           0       -1.922588    2.010338    2.575331
     21          1           0       -1.831248    3.432381    1.513541
     22          1           0       -0.791583    3.330575    2.931794
     23          7           0        1.546216    2.032546   -0.160784
     24          8           0        2.447998    2.535188   -0.946486
     25          6           0        0.731357    2.794114    0.514954
     26          6           0        0.755023    4.288083    0.450928
     27          1           0        0.911883    4.713957    1.440340
     28          1           0       -0.184582    4.671100    0.056461
     29          1           0        1.567949    4.593681   -0.204887
     30          1           0        3.343931    1.371104   -1.352987
     31          1           0       -0.541136   -0.963960    1.844809
     32          6           0        0.360653   -0.203239   -1.517437
     33          1           0        0.838068    0.447257   -2.249477
     34          1           0        0.586845   -1.253187   -1.702167
     35          6           0       -1.060719    0.048954   -1.377824
     36          6           0       -1.864916   -0.925781   -0.877213
     37          1           0       -1.374994   -1.824104   -0.522194
     38          6           0       -1.556286    1.401407   -1.803515
     39          1           0       -0.767150    2.138613   -1.684394
     40          1           0       -1.831047    1.381112   -2.857532
     41          1           0       -2.422605    1.705187   -1.222823
     42          6           0       -3.297218   -0.916399   -0.664581
     43          6           0       -4.205203   -0.234290   -1.480445
     44          6           0       -3.806951   -1.667945    0.402640
     45          6           0       -5.561675   -0.276276   -1.215504
     46          1           0       -3.854725    0.293528   -2.351537
     47          6           0       -5.159680   -1.692384    0.673953
     48          1           0       -3.120143   -2.214211    1.031849
     49          6           0       -6.045124   -0.992060   -0.132213
     50          1           0       -6.248605    0.251224   -1.861682
     51          1           0       -5.529694   -2.265076    1.512148
     52          1           0       -7.104796   -1.015805    0.075441
 ---------------------------------------------------------------------

 SCF Done:  E(RB3LYP) =  -1365.93253205     A.U. after   21 cycles

 The electronic state is 1-A.
 Alpha  occ. eigenvalues --  -19.16623 -19.16416 -19.12731 -19.12651 -14.40941
 Alpha  occ. eigenvalues --  -14.40935 -14.40599 -14.40399 -10.23608 -10.23505
 Alpha  occ. eigenvalues --  -10.21403 -10.21332 -10.18505 -10.18435 -10.17524
 Alpha  occ. eigenvalues --  -10.17493 -10.17453 -10.17453 -10.17442 -10.17408
 Alpha  occ. eigenvalues --  -10.17385 -10.17371 -10.16917 -10.16827 -10.16807
 Alpha  occ. eigenvalues --  -10.15852  -3.74388  -2.44420  -2.43621  -2.42542
 Alpha  occ. eigenvalues --   -1.09044  -1.08497  -1.06859  -1.06316  -0.90585
 Alpha  occ. eigenvalues --   -0.89378  -0.85746  -0.81906  -0.80936  -0.80572
 Alpha  occ. eigenvalues --   -0.75309  -0.74633  -0.74181  -0.74176  -0.70646
 Alpha  occ. eigenvalues --   -0.70519  -0.68465  -0.66377  -0.62301  -0.60293
 Alpha  occ. eigenvalues --   -0.60040  -0.58768  -0.54899  -0.53521  -0.52934
 Alpha  occ. eigenvalues --   -0.52072  -0.51280  -0.50837  -0.49462  -0.48970
 Alpha  occ. eigenvalues --   -0.47602  -0.47027  -0.46620  -0.46069  -0.45288
 Alpha  occ. eigenvalues --   -0.44467  -0.43395  -0.42689  -0.42287  -0.42210
 Alpha  occ. eigenvalues --   -0.42006  -0.41823  -0.41533  -0.40990  -0.40549
 Alpha  occ. eigenvalues --   -0.39981  -0.39620  -0.39319  -0.38805  -0.38194
 Alpha  occ. eigenvalues --   -0.38119  -0.38039  -0.37603  -0.37384  -0.36793
 Alpha  occ. eigenvalues --   -0.36545  -0.34963  -0.34295  -0.34234  -0.33155
 Alpha  occ. eigenvalues --   -0.32895  -0.30898  -0.30492  -0.28249  -0.28006
 Alpha  occ. eigenvalues --   -0.27713  -0.26504  -0.26220  -0.25071  -0.25004
 Alpha  occ. eigenvalues --   -0.24906  -0.22353  -0.20112  -0.19752  -0.19487
 Alpha virt. eigenvalues --   -0.09160  -0.03734  -0.03319  -0.00414   0.00292
 Alpha virt. eigenvalues --    0.00512   0.02583   0.02793   0.03362   0.06070
 Alpha virt. eigenvalues --    0.06704   0.06810   0.07864   0.11050   0.12313

 Mulliken charges:
               1
     1  Co   0.315013
     2  N   -0.159141
     3  O   -0.573038
     4  C    0.323185
     5  C   -0.545365
     6  H    0.205085
     7  H    0.198458
     8  H    0.199836
     9  N   -0.077682
    10  O   -0.555003
    11  C    0.270668
    12  C   -0.548119
    13  H    0.190481
    14  H    0.189401
    15  H    0.187171
    16  N   -0.176114
    17  O   -0.567661
    18  C    0.329929
    19  C   -0.548060
    20  H    0.201404
    21  H    0.200078
    22  H    0.202296
    23  N   -0.076333
    24  O   -0.559218
    25  C    0.268734
    26  C   -0.549379
    27  H    0.187100
    28  H    0.188494
    29  H    0.190701
    30  H    0.470465
    31  H    0.474389
    32  C   -0.404218
    33  H    0.190594
    34  H    0.192803
    35  C    0.234476
    36  C   -0.252131
    37  H    0.153683
    38  C   -0.556432
    39  H    0.180294
    40  H    0.181034
    41  H    0.170512
    42  C    0.149257
    43  C   -0.201926
    44  C   -0.201299
    45  C   -0.158379
    46  H    0.159253
    47  C   -0.155559
    48  H    0.154161
    49  C   -0.151952
    50  H    0.152680
    51  H    0.152968
    52  H    0.152408
 Sum of Mulliken charges =  -0.00000

 Dipole moment (field-independent basis, Debye):
    X=              0.0719    Y=              0.3528    Z=              0.8065  Tot=              0.8832
 Quadrupole moment (field-independent basis, Debye-Ang):
   XX=           -154.6115   YY=           -151.3707   ZZ=           -165.9654
   XY=            -22.7476   XZ=              6.2332   YZ=              8.6261

 Normal termination of Gaussian 16 at Thu Mar  2 08:36:04 2023.
