 Gaussian 16, Revision C.01,
 Gaussian 16:  ES64L-G16RevC.01  3-Jul-2019

 -----------------------------------------------------------
 # B3LYP/genecp em=GD3BJ int=fine scrf=(smd,solvent=acetone)
 -----------------------------------------------------------

 --------
 Template
 --------
 Symbolic Z-matrix:
 Charge =  0 Multiplicity = 1

                         Standard orientation:
 ---------------------------------------------------------------------
 Center     Atomic      Atomic             Coordinates (Angstroms)
 Number     Number       Type             X           Y           Z
 ---------------------------------------------------------------------
      1         27           0        1.374107    0.166652    0.189975
      2          7           0        2.931260   -0.515650   -0.605190
      3          8           0        3.787853    0.167124   -1.416976
      4          6           0        3.199699   -1.746878   -0.309932
      5          6           0        4.407294   -2.474552   -0.793721
      6          1           0        5.085071   -1.775620   -1.276772
      7          1           0        4.112773   -3.236261   -1.513897
      8          1           0        4.911408   -2.967046    0.034365
      9          7           0        1.196884   -1.605392    0.817793
     10          8           0        0.204484   -2.031573    1.535186
     11          6           0        2.200635   -2.380820    0.515822
     12          6           0        2.304006   -3.805967    0.957266
     13          1           0        2.392185   -4.467947    0.098151
     14          1           0        1.406400   -4.059808    1.517563
     15          1           0        3.173885   -3.951356    1.595967
     16          7           0       -0.012945    0.894265    1.235491
     17          8           0       -0.925178    0.192737    1.965324
     18          6           0       -0.038255    2.187114    1.280328
     19          6           0       -1.008964    2.975986    2.090991
     20          1           0       -1.724503    2.303672    2.556784
     21          1           0       -1.534023    3.687109    1.457529
     22          1           0       -0.484200    3.535475    2.863831
     23          7           0        1.704019    1.977369   -0.211599
     24          8           0        2.638611    2.385581   -1.013224
     25          6           0        0.960233    2.818542    0.451519
     26          6           0        1.107138    4.303675    0.353879
     27          1           0        1.306810    4.736724    1.332330
     28          1           0        0.199592    4.754979   -0.043314
     29          1           0        1.937282    4.526102   -0.313657
     30          1           0        3.434994    1.141911   -1.394673
     31          1           0       -0.616914   -0.791175    1.866763
     32          6           0        0.334814   -0.182919   -1.514775
     33          1           0        0.818433    0.466066   -2.244075
     34          1           0        0.532870   -1.235150   -1.718040
     35          6           0       -1.078248    0.100204   -1.353090
     36          6           0       -1.899523   -0.868047   -0.867651
     37          1           0       -1.425264   -1.783523   -0.536287
     38          6           0       -1.546074    1.473448   -1.741861
     39          1           0       -0.737400    2.188161   -1.615172
     40          1           0       -1.834088    1.484587   -2.792508
     41          1           0       -2.397216    1.783996   -1.142471
     42          6           0       -3.330425   -0.841437   -0.649757
     43          6           0       -3.849618   -1.626694    0.388500
     44          6           0       -4.230005   -0.116022   -1.437199
     45          6           0       -5.202277   -1.644165    0.660227
     46          1           0       -3.169669   -2.207085    0.994499
     47          6           0       -5.586666   -0.150510   -1.172338
     48          1           0       -3.873695    0.440692   -2.287528
     49          6           0       -6.078944   -0.901790   -0.117437
     50          1           0       -5.579360   -2.244304    1.475782
     51          1           0       -6.267071    0.410393   -1.796867
     52          1           0       -7.138797   -0.920288    0.089821
 ---------------------------------------------------------------------

 SCF Done:  E(RB3LYP) =  -1365.93259523     A.U. after   21 cycles

 The electronic state is 1-A.
 Alpha  occ. eigenvalues --  -19.16619 -19.16371 -19.12701 -19.12661 -14.40950
 Alpha  occ. eigenvalues --  -14.40929 -14.40590 -14.40400 -10.23595 -10.23525
 Alpha  occ. eigenvalues --  -10.21392 -10.21334 -10.18520 -10.18437 -10.17532
 Alpha  occ. eigenvalues --  -10.17502 -10.17462 -10.17447 -10.17429 -10.17414
 Alpha  occ. eigenvalues --  -10.17393 -10.17384 -10.16913 -10.16819 -10.16809
 Alpha  occ. eigenvalues --  -10.15860  -3.74371  -2.44400  -2.43612  -2.42521
 Alpha  occ. eigenvalues --   -1.09033  -1.08478  -1.06859  -1.06315  -0.90576
 Alpha  occ. eigenvalues --   -0.89371  -0.85753  -0.81897  -0.80933  -0.80566
 Alpha  occ. eigenvalues --   -0.75320  -0.74634  -0.74190  -0.74177  -0.70642
 Alpha  occ. eigenvalues --   -0.70518  -0.68469  -0.66369  -0.62292  -0.60287
 Alpha  occ. eigenvalues --   -0.60056  -0.58775  -0.54889  -0.53516  -0.52944
 Alpha  occ. eigenvalues --   -0.52063  -0.51267  -0.50833  -0.49466  -0.48963
 Alpha  occ. eigenvalues --   -0.47600  -0.47022  -0.46608  -0.46072  -0.45290
 Alpha  occ. eigenvalues --   -0.44462  -0.43399  -0.42655  -0.42294  -0.42202
 Alpha  occ. eigenvalues --   -0.42008  -0.41819  -0.41523  -0.40992  -0.40547
 Alpha  occ. eigenvalues --   -0.39979  -0.39611  -0.39316  -0.38796  -0.38177
 Alpha  occ. eigenvalues --   -0.38130  -0.38044  -0.37604  -0.37364  -0.36812
 Alpha  occ. eigenvalues --   -0.36554  -0.34948  -0.34288  -0.34234  -0.33136
 Alpha  occ. eigenvalues --   -0.32897  -0.30882  -0.30528  -0.28225  -0.27981
 Alpha  occ. eigenvalues --   -0.27705  -0.26544  -0.26208  -0.25062  -0.24995
 Alpha  occ. eigenvalues --   -0.24919  -0.22341  -0.20085  -0.19716  -0.19525
 Alpha virt. eigenvalues --   -0.09160  -0.03717  -0.03313  -0.00409   0.00293
 Alpha virt. eigenvalues --    0.00493   0.02585   0.02779   0.03374   0.06092
 Alpha virt. eigenvalues --    0.06712   0.06814   0.07873   0.11068   0.12317

 Mulliken charges:
               1
     1  Co   0.313738
     2  N   -0.159462
     3  O   -0.573004
     4  C    0.323611
     5  C   -0.546082
     6  H    0.200193
     7  H    0.204590
     8  H    0.198930
     9  N   -0.077642
    10  O   -0.554846
    11  C    0.270188
    12  C   -0.548020
    13  H    0.187290
    14  H    0.190464
    15  H    0.189029
    16  N   -0.177783
    17  O   -0.568243
    18  C    0.330291
    19  C   -0.547887
    20  H    0.201403
    21  H    0.200124
    22  H    0.202290
    23  N   -0.075793
    24  O   -0.558594
    25  C    0.269060
    26  C   -0.549330
    27  H    0.187104
    28  H    0.188575
    29  H    0.190623
    30  H    0.470285
    31  H    0.475074
    32  C   -0.405358
    33  H    0.191187
    34  H    0.191792
    35  C    0.236618
    36  C   -0.253578
    37  H    0.155625
    38  C   -0.556388
    39  H    0.179239
    40  H    0.181009
    41  H    0.170823
    42  C    0.151291
    43  C   -0.203938
    44  C   -0.201961
    45  C   -0.155070
    46  H    0.154841
    47  C   -0.158268
    48  H    0.159297
    49  C   -0.151805
    50  H    0.153139
    51  H    0.152789
    52  H    0.152543
 Sum of Mulliken charges =  -0.00000

 Dipole moment (field-independent basis, Debye):
    X=              0.0531    Y=              0.3189    Z=              0.7998  Tot=              0.8627
 Quadrupole moment (field-independent basis, Debye-Ang):
   XX=           -158.0599   YY=           -146.7784   ZZ=           -166.9483
   XY=            -21.3803   XZ=              7.6806   YZ=              7.8315

 Normal termination of Gaussian 16 at Thu Mar  2 08:38:52 2023.
