 Gaussian 16, Revision C.01,
 Gaussian 16:  ES64L-G16RevC.01  3-Jul-2019

 -----------------------------------------------------------
 # B3LYP/genecp em=GD3BJ int=fine scrf=(smd,solvent=acetone)
 -----------------------------------------------------------

 --------
 Template
 --------
 Symbolic Z-matrix:
 Charge =  0 Multiplicity = 1

                         Standard orientation:
 ---------------------------------------------------------------------
 Center     Atomic      Atomic             Coordinates (Angstroms)
 Number     Number       Type             X           Y           Z
 ---------------------------------------------------------------------
      1         27           0       -1.349767    0.325678    0.223390
      2          7           0       -0.584761    2.028721   -0.007057
      3          8           0       -0.962408    2.963388   -0.930079
      4          6           0        0.386169    2.310165    0.800975
      5          6           0        1.116188    3.609599    0.804911
      6          1           0        0.624990    4.307785    0.132050
      7          1           0        2.141449    3.454631    0.472630
      8          1           0        1.145395    4.024658    1.809834
      9          7           0        0.038088    0.148441    1.508530
     10          8           0        0.241789   -0.915289    2.224000
     11          6           0        0.735284    1.233954    1.694342
     12          6           0        1.821127    1.356369    2.714814
     13          1           0        1.577622    2.123965    3.448125
     14          1           0        2.764727    1.618197    2.240397
     15          1           0        1.927893    0.400793    3.223692
     16          7           0       -2.232320   -1.271062    0.656706
     17          8           0       -1.753290   -2.268170    1.453554
     18          6           0       -3.417314   -1.393993    0.149218
     19          6           0       -4.304640   -2.568519    0.383325
     20          1           0       -5.290785   -2.241319    0.704176
     21          1           0       -3.864845   -3.212982    1.140023
     22          1           0       -4.418730   -3.132749   -0.540895
     23          7           0       -2.890902    0.631200   -0.808202
     24          8           0       -3.081597    1.695149   -1.518265
     25          6           0       -3.808264   -0.287968   -0.688954
     26          6           0       -5.140874   -0.215381   -1.363234
     27          1           0       -5.164953    0.677195   -1.984926
     28          1           0       -5.943694   -0.158189   -0.629593
     29          1           0       -5.303374   -1.093259   -1.985085
     30          1           0       -1.846076    2.591789   -1.312969
     31          1           0       -0.888220   -1.868435    1.861695
     32          6           0       -0.438395   -0.438225   -1.414903
     33          1           0       -1.127529   -1.197177   -1.782779
     34          1           0       -0.389965    0.414580   -2.091084
     35          6           0        0.863201   -0.973567   -1.065952
     36          6           0        1.964019   -0.188635   -1.211456
     37          1           0        1.807580    0.794625   -1.639831
     38          6           0        0.924511   -2.405985   -0.624875
     39          1           0        0.071574   -2.956039   -1.013486
     40          1           0        1.841732   -2.877375   -0.968240
     41          1           0        0.888314   -2.470597    0.461287
     42          6           0        3.350215   -0.497464   -0.929576
     43          6           0        3.758502   -1.366960    0.087456
     44          6           0        4.342826    0.141100   -1.685826
     45          6           0        5.100793   -1.609567    0.311983
     46          1           0        3.025457   -1.815867    0.735519
     47          6           0        5.681160   -0.116274   -1.468757
     48          1           0        4.047308    0.831336   -2.463221
     49          6           0        6.067494   -0.999717   -0.471391
     50          1           0        5.395374   -2.279174    1.107163
     51          1           0        6.429294    0.375495   -2.073573
     52          1           0        7.114472   -1.200526   -0.298574
 ---------------------------------------------------------------------

 SCF Done:  E(RB3LYP) =  -1365.93347737     A.U. after   20 cycles

 The electronic state is 1-A.
 Alpha  occ. eigenvalues --  -19.16680 -19.16597 -19.12840 -19.12822 -14.41193
 Alpha  occ. eigenvalues --  -14.40858 -14.40544 -14.40482 -10.23648 -10.23606
 Alpha  occ. eigenvalues --  -10.21320 -10.21192 -10.18646 -10.18530 -10.17606
 Alpha  occ. eigenvalues --  -10.17573 -10.17538 -10.17513 -10.17475 -10.17465
 Alpha  occ. eigenvalues --  -10.17447 -10.17434 -10.17131 -10.16829 -10.16724
 Alpha  occ. eigenvalues --  -10.15429  -3.74516  -2.44554  -2.43732  -2.42677
 Alpha  occ. eigenvalues --   -1.09097  -1.08543  -1.07025  -1.06428  -0.90631
 Alpha  occ. eigenvalues --   -0.89443  -0.85843  -0.81927  -0.81005  -0.80612
 Alpha  occ. eigenvalues --   -0.75349  -0.74665  -0.74257  -0.74207  -0.70647
 Alpha  occ. eigenvalues --   -0.70503  -0.68349  -0.66452  -0.62338  -0.60336
 Alpha  occ. eigenvalues --   -0.60113  -0.58836  -0.54928  -0.53628  -0.52961
 Alpha  occ. eigenvalues --   -0.52119  -0.51385  -0.50908  -0.49421  -0.49082
 Alpha  occ. eigenvalues --   -0.47728  -0.46903  -0.46653  -0.45995  -0.45666
 Alpha  occ. eigenvalues --   -0.44547  -0.43469  -0.42748  -0.42421  -0.42253
 Alpha  occ. eigenvalues --   -0.42066  -0.41954  -0.41426  -0.40883  -0.40592
 Alpha  occ. eigenvalues --   -0.40191  -0.39541  -0.38952  -0.38826  -0.38213
 Alpha  occ. eigenvalues --   -0.38075  -0.37915  -0.37586  -0.37319  -0.36757
 Alpha  occ. eigenvalues --   -0.36422  -0.34729  -0.34626  -0.34315  -0.33452
 Alpha  occ. eigenvalues --   -0.33127  -0.30956  -0.30558  -0.28279  -0.27949
 Alpha  occ. eigenvalues --   -0.27730  -0.26813  -0.26403  -0.25204  -0.25089
 Alpha  occ. eigenvalues --   -0.25018  -0.22471  -0.20362  -0.19783  -0.19372
 Alpha virt. eigenvalues --   -0.09357  -0.03829  -0.03373  -0.00501   0.00202
 Alpha virt. eigenvalues --    0.00435   0.02631   0.02784   0.03244   0.06430
 Alpha virt. eigenvalues --    0.06662   0.07036   0.07800   0.11161   0.12387

 Mulliken charges:
               1
     1  Co   0.328645
     2  N   -0.172698
     3  O   -0.572040
     4  C    0.327057
     5  C   -0.547249
     6  H    0.199724
     7  H    0.204824
     8  H    0.199360
     9  N   -0.088111
    10  O   -0.550794
    11  C    0.275436
    12  C   -0.549150
    13  H    0.187365
    14  H    0.187086
    15  H    0.189959
    16  N   -0.169193
    17  O   -0.571914
    18  C    0.323462
    19  C   -0.546875
    20  H    0.199325
    21  H    0.200666
    22  H    0.204710
    23  N   -0.063649
    24  O   -0.554953
    25  C    0.268445
    26  C   -0.546873
    27  H    0.190377
    28  H    0.189167
    29  H    0.186730
    30  H    0.469953
    31  H    0.473943
    32  C   -0.398923
    33  H    0.184302
    34  H    0.190542
    35  C    0.240313
    36  C   -0.266802
    37  H    0.153872
    38  C   -0.550359
    39  H    0.165300
    40  H    0.164057
    41  H    0.187070
    42  C    0.149628
    43  C   -0.201543
    44  C   -0.204245
    45  C   -0.158118
    46  H    0.163561
    47  C   -0.154194
    48  H    0.153036
    49  C   -0.151291
    50  H    0.153798
    51  H    0.153856
    52  H    0.153406
 Sum of Mulliken charges =  -0.00000

 Dipole moment (field-independent basis, Debye):
    X=             -0.1270    Y=              0.1057    Z=              0.7978  Tot=              0.8147
 Quadrupole moment (field-independent basis, Debye-Ang):
   XX=           -138.5089   YY=           -163.6155   ZZ=           -169.4211
   XY=             18.4203   XZ=             -0.5319   YZ=             11.4759

 Normal termination of Gaussian 16 at Thu Mar  2 08:12:06 2023.
