 Gaussian 16, Revision C.01,
 Gaussian 16:  ES64L-G16RevC.01  3-Jul-2019

 -----------------------------------------------------------
 # B3LYP/genecp em=GD3BJ int=fine scrf=(smd,solvent=acetone)
 -----------------------------------------------------------

 --------
 Template
 --------
 Symbolic Z-matrix:
 Charge =  0 Multiplicity = 1

                         Standard orientation:
 ---------------------------------------------------------------------
 Center     Atomic      Atomic             Coordinates (Angstroms)
 Number     Number       Type             X           Y           Z
 ---------------------------------------------------------------------
      1         27           0        1.360647    0.210302    0.191822
      2          7           0        2.992167   -0.233731   -0.620293
      3          8           0        3.707714    0.553068   -1.474075
      4          6           0        3.469060   -1.391032   -0.290630
      5          6           0        4.775991   -1.919678   -0.774879
      6          1           0        5.322497   -1.130060   -1.284038
      7          1           0        4.605317   -2.737412   -1.473331
      8          1           0        5.363623   -2.300302    0.057102
      9          7           0        1.487772   -1.549468    0.871652
     10          8           0        0.588729   -2.111497    1.617085
     11          6           0        2.603433   -2.155707    0.573625
     12          6           0        2.951064   -3.528804    1.053879
     13          1           0        3.832567   -3.503440    1.692960
     14          1           0        3.153065   -4.189831    0.213531
     15          1           0        2.110587   -3.917348    1.625522
     16          7           0       -0.097965    0.732803    1.264927
     17          8           0       -0.871729   -0.083134    2.035938
     18          6           0       -0.321779    2.007510    1.287927
     19          6           0       -1.375006    2.651107    2.125601
     20          1           0       -1.940406    3.372420    1.541186
     21          1           0       -0.913975    3.179630    2.959300
     22          1           0       -2.040988    1.887425    2.519545
     23          7           0        1.384045    2.034960   -0.259950
     24          8           0        2.220220    2.564230   -1.096914
     25          6           0        0.540359    2.766038    0.414174
     26          6           0        0.456029    4.253980    0.285469
     27          1           0       -0.492561    4.550651   -0.159645
     28          1           0        1.265507    4.590467   -0.359144
     29          1           0        0.545047    4.731757    1.259044
     30          1           0        3.201522    1.458545   -1.467399
     31          1           0       -0.425397   -1.012147    1.944805
     32          6           0        0.364068   -0.338427   -1.482075
     33          1           0        0.861627    0.220926   -2.273001
     34          1           0        0.573538   -1.405460   -1.550149
     35          6           0       -1.049682   -0.042163   -1.367815
     36          6           0       -1.877125   -0.987253   -0.843087
     37          1           0       -1.413901   -1.927194   -0.567964
     38          6           0       -1.524721    1.277081   -1.906121
     39          1           0       -2.477933    1.159543   -2.415521
     40          1           0       -1.646041    2.002867   -1.104185
     41          1           0       -0.795910    1.680831   -2.604140
     42          6           0       -3.305631   -0.962177   -0.621297
     43          6           0       -3.978235   -2.191826   -0.560738
     44          6           0       -4.058283    0.200671   -0.425129
     45          6           0       -5.341353   -2.254053   -0.358369
     46          1           0       -3.413617   -3.104234   -0.688541
     47          6           0       -5.421683    0.133926   -0.207510
     48          1           0       -3.572542    1.159908   -0.401643
     49          6           0       -6.073282   -1.088463   -0.185291
     50          1           0       -5.838141   -3.213028   -0.327597
     51          1           0       -5.982028    1.044392   -0.050783
     52          1           0       -7.139847   -1.134717   -0.022135
 ---------------------------------------------------------------------

 SCF Done:  E(RB3LYP) =  -1365.93178292     A.U. after   20 cycles

 The electronic state is 1-A.
 Alpha  occ. eigenvalues --  -19.16581 -19.16419 -19.12639 -19.12618 -14.40939
 Alpha  occ. eigenvalues --  -14.40880 -14.40538 -14.40364 -10.23575 -10.23507
 Alpha  occ. eigenvalues --  -10.21316 -10.21295 -10.18656 -10.18561 -10.17604
 Alpha  occ. eigenvalues --  -10.17565 -10.17539 -10.17491 -10.17476 -10.17435
 Alpha  occ. eigenvalues --  -10.17433 -10.17431 -10.17180 -10.16813 -10.16789
 Alpha  occ. eigenvalues --  -10.15959  -3.74334  -2.44371  -2.43571  -2.42485
 Alpha  occ. eigenvalues --   -1.08998  -1.08443  -1.06844  -1.06296  -0.90545
 Alpha  occ. eigenvalues --   -0.89350  -0.85837  -0.81855  -0.81039  -0.80537
 Alpha  occ. eigenvalues --   -0.75416  -0.74617  -0.74262  -0.74147  -0.70620
 Alpha  occ. eigenvalues --   -0.70499  -0.68625  -0.66421  -0.62277  -0.60289
 Alpha  occ. eigenvalues --   -0.60139  -0.58871  -0.54852  -0.53482  -0.53106
 Alpha  occ. eigenvalues --   -0.52040  -0.51244  -0.50813  -0.49535  -0.48938
 Alpha  occ. eigenvalues --   -0.47573  -0.46934  -0.46768  -0.46227  -0.45386
 Alpha  occ. eigenvalues --   -0.44438  -0.43436  -0.42549  -0.42379  -0.42184
 Alpha  occ. eigenvalues --   -0.42008  -0.41888  -0.41587  -0.40728  -0.40520
 Alpha  occ. eigenvalues --   -0.40012  -0.39714  -0.39244  -0.38834  -0.38268
 Alpha  occ. eigenvalues --   -0.38063  -0.37968  -0.37566  -0.37314  -0.36937
 Alpha  occ. eigenvalues --   -0.36535  -0.35039  -0.34306  -0.34283  -0.33376
 Alpha  occ. eigenvalues --   -0.33093  -0.30903  -0.30448  -0.28219  -0.27925
 Alpha  occ. eigenvalues --   -0.27662  -0.26795  -0.26158  -0.25054  -0.24993
 Alpha  occ. eigenvalues --   -0.24937  -0.22273  -0.20108  -0.19662  -0.19475
 Alpha virt. eigenvalues --   -0.09179  -0.03861  -0.03303  -0.00345   0.00271
 Alpha virt. eigenvalues --    0.00448   0.02603   0.02849   0.03282   0.06534
 Alpha virt. eigenvalues --    0.06778   0.06835   0.07296   0.11186   0.12349

 Mulliken charges:
               1
     1  Co   0.321729
     2  N   -0.160442
     3  O   -0.573510
     4  C    0.324068
     5  C   -0.545791
     6  H    0.199920
     7  H    0.204687
     8  H    0.198739
     9  N   -0.076325
    10  O   -0.555825
    11  C    0.267808
    12  C   -0.548511
    13  H    0.188870
    14  H    0.186522
    15  H    0.190193
    16  N   -0.170267
    17  O   -0.568302
    18  C    0.315468
    19  C   -0.547217
    20  H    0.196235
    21  H    0.204447
    22  H    0.201392
    23  N   -0.074667
    24  O   -0.558835
    25  C    0.272286
    26  C   -0.548755
    27  H    0.188847
    28  H    0.190772
    29  H    0.185800
    30  H    0.470132
    31  H    0.471024
    32  C   -0.398902
    33  H    0.184860
    34  H    0.193332
    35  C    0.225792
    36  C   -0.246848
    37  H    0.151178
    38  C   -0.553329
    39  H    0.172032
    40  H    0.187090
    41  H    0.172864
    42  C    0.157870
    43  C   -0.205919
    44  C   -0.204461
    45  C   -0.153369
    46  H    0.154123
    47  C   -0.157637
    48  H    0.160709
    49  C   -0.150782
    50  H    0.153984
    51  H    0.153324
    52  H    0.153600
 Sum of Mulliken charges =  -0.00000

 Dipole moment (field-independent basis, Debye):
    X=             -0.1451    Y=              0.4337    Z=              0.8520  Tot=              0.9669
 Quadrupole moment (field-independent basis, Debye-Ang):
   XX=           -149.8791   YY=           -148.6572   ZZ=           -172.5040
   XY=            -21.3334   XZ=              5.1678   YZ=             13.0952

 Normal termination of Gaussian 16 at Thu Mar  2 08:54:59 2023.
