 Gaussian 16, Revision C.01,
 Gaussian 16:  ES64L-G16RevC.01  3-Jul-2019

 -----------------------------------------------------------
 # B3LYP/genecp em=GD3BJ int=fine scrf=(smd,solvent=acetone)
 -----------------------------------------------------------

 --------
 Template
 --------
 Symbolic Z-matrix:
 Charge =  0 Multiplicity = 1

                         Standard orientation:
 ---------------------------------------------------------------------
 Center     Atomic      Atomic             Coordinates (Angstroms)
 Number     Number       Type             X           Y           Z
 ---------------------------------------------------------------------
      1         27           0        1.357639    0.219185    0.239158
      2          7           0        3.001201    0.267770   -0.663608
      3          8           0        3.467929    1.297450   -1.426860
      4          6           0        3.741420   -0.783177   -0.513516
      5          6           0        5.098611   -0.936081   -1.110117
      6          1           0        5.806633   -1.282208   -0.361086
      7          1           0        5.426831    0.016083   -1.518844
      8          1           0        5.065209   -1.671392   -1.912511
      9          7           0        1.918178   -1.536078    0.672629
     10          8           0        1.216016   -2.375951    1.368738
     11          6           0        3.122545   -1.827081    0.266898
     12          6           0        3.798918   -3.129529    0.553789
     13          1           0        4.689174   -2.977487    1.162448
     14          1           0        4.092796   -3.620745   -0.371580
     15          1           0        3.103759   -3.767359    1.096124
     16          7           0       -0.133936    0.241873    1.389192
     17          8           0       -0.678723   -0.832499    2.027155
     18          6           0       -0.640365    1.413725    1.597336
     19          6           0       -1.796307    1.671708    2.501680
     20          1           0       -2.680887    1.899991    1.909071
     21          1           0       -1.591745    2.519334    3.151084
     22          1           0       -1.996407    0.785739    3.098704
     23          7           0        0.953916    2.043821    0.059575
     24          8           0        1.612733    2.860596   -0.702959
     25          6           0       -0.002254    2.463104    0.841003
     26          6           0       -0.426057    3.894422    0.928273
     27          1           0        0.145999    4.469840    0.203194
     28          1           0       -0.236938    4.293489    1.923914
     29          1           0       -1.487728    3.992954    0.712778
     30          1           0        2.782990    2.059633   -1.268488
     31          1           0       -0.009723   -1.601119    1.835539
     32          6           0        0.410802   -0.325290   -1.474017
     33          1           0        0.904697    0.272140   -2.239453
     34          1           0        0.664684   -1.382127   -1.554470
     35          6           0       -1.021502   -0.094983   -1.432603
     36          6           0       -1.835327   -1.040237   -0.896456
     37          1           0       -1.355614   -1.903938   -0.453212
     38          6           0       -1.519730    1.200110   -2.007341
     39          1           0       -0.766921    1.974776   -1.894955
     40          1           0       -1.708155    1.080870   -3.073870
     41          1           0       -2.439905    1.521238   -1.527553
     42          6           0       -3.276970   -1.017295   -0.741440
     43          6           0       -4.151754   -0.469584   -1.683538
     44          6           0       -3.823173   -1.600432    0.408858
     45          6           0       -5.517616   -0.480682   -1.466607
     46          1           0       -3.765113   -0.073997   -2.608297
     47          6           0       -5.185577   -1.591456    0.630147
     48          1           0       -3.157089   -2.032634    1.141118
     49          6           0       -6.040326   -1.028793   -0.306454
     50          1           0       -6.180096   -0.060690   -2.209768
     51          1           0       -5.586738   -2.030879    1.532022
     52          1           0       -7.107140   -1.028648   -0.137638
 ---------------------------------------------------------------------

 SCF Done:  E(RB3LYP) =  -1365.93085994     A.U. after   21 cycles

 The electronic state is 1-A.
 Alpha  occ. eigenvalues --  -19.16663 -19.16621 -19.12741 -19.12724 -14.40967
 Alpha  occ. eigenvalues --  -14.40941 -14.40589 -14.40365 -10.23670 -10.23456
 Alpha  occ. eigenvalues --  -10.21376 -10.21354 -10.18517 -10.18420 -10.17535
 Alpha  occ. eigenvalues --  -10.17502 -10.17468 -10.17467 -10.17459 -10.17430
 Alpha  occ. eigenvalues --  -10.17363 -10.17332 -10.16964 -10.16823 -10.16802
 Alpha  occ. eigenvalues --  -10.15774  -3.74506  -2.44540  -2.43706  -2.42686
 Alpha  occ. eigenvalues --   -1.09080  -1.08547  -1.06877  -1.06342  -0.90615
 Alpha  occ. eigenvalues --   -0.89412  -0.85763  -0.81922  -0.80947  -0.80594
 Alpha  occ. eigenvalues --   -0.75292  -0.74634  -0.74183  -0.74173  -0.70650
 Alpha  occ. eigenvalues --   -0.70525  -0.68416  -0.66409  -0.62330  -0.60317
 Alpha  occ. eigenvalues --   -0.60041  -0.58765  -0.54906  -0.53545  -0.52939
 Alpha  occ. eigenvalues --   -0.52116  -0.51314  -0.50864  -0.49431  -0.49003
 Alpha  occ. eigenvalues --   -0.47638  -0.47014  -0.46636  -0.46110  -0.45293
 Alpha  occ. eigenvalues --   -0.44496  -0.43384  -0.42800  -0.42306  -0.42287
 Alpha  occ. eigenvalues --   -0.42054  -0.41916  -0.41525  -0.40897  -0.40598
 Alpha  occ. eigenvalues --   -0.39999  -0.39597  -0.39201  -0.38807  -0.38356
 Alpha  occ. eigenvalues --   -0.38095  -0.38031  -0.37597  -0.37329  -0.36763
 Alpha  occ. eigenvalues --   -0.36362  -0.34939  -0.34331  -0.34248  -0.33292
 Alpha  occ. eigenvalues --   -0.32908  -0.30991  -0.30435  -0.28360  -0.28021
 Alpha  occ. eigenvalues --   -0.27757  -0.26487  -0.26241  -0.25175  -0.25043
 Alpha  occ. eigenvalues --   -0.24932  -0.22367  -0.20217  -0.19814  -0.19521
 Alpha virt. eigenvalues --   -0.09198  -0.03813  -0.03422  -0.00435   0.00206
 Alpha virt. eigenvalues --    0.00492   0.02608   0.02858   0.03311   0.05946
 Alpha virt. eigenvalues --    0.06725   0.06792   0.07838   0.11051   0.12249

 Mulliken charges:
               1
     1  Co   0.330881
     2  N   -0.162406
     3  O   -0.573111
     4  C    0.325754
     5  C   -0.545536
     6  H    0.199081
     7  H    0.200316
     8  H    0.205364
     9  N   -0.079508
    10  O   -0.557320
    11  C    0.269139
    12  C   -0.548117
    13  H    0.189396
    14  H    0.187063
    15  H    0.190333
    16  N   -0.169636
    17  O   -0.566675
    18  C    0.322623
    19  C   -0.546472
    20  H    0.205543
    21  H    0.196474
    22  H    0.199162
    23  N   -0.081131
    24  O   -0.559102
    25  C    0.274700
    26  C   -0.549132
    27  H    0.190281
    28  H    0.189275
    29  H    0.186947
    30  H    0.471295
    31  H    0.471486
    32  C   -0.403613
    33  H    0.189477
    34  H    0.197999
    35  C    0.231068
    36  C   -0.246059
    37  H    0.148306
    38  C   -0.556291
    39  H    0.181293
    40  H    0.179443
    41  H    0.168218
    42  C    0.136349
    43  C   -0.200119
    44  C   -0.199012
    45  C   -0.158677
    46  H    0.159225
    47  C   -0.155816
    48  H    0.154991
    49  C   -0.151820
    50  H    0.152885
    51  H    0.152899
    52  H    0.152288
 Sum of Mulliken charges =  -0.00000

 Dipole moment (field-independent basis, Debye):
    X=              0.2075    Y=              0.4840    Z=              0.7604  Tot=              0.9249
 Quadrupole moment (field-independent basis, Debye-Ang):
   XX=           -140.6149   YY=           -168.9338   ZZ=           -162.2422
   XY=            -20.1079   XZ=             -0.6474   YZ=             11.2834

 Normal termination of Gaussian 16 at Thu Mar  2 08:15:12 2023.
