 Gaussian 16, Revision C.01,
 Gaussian 16:  ES64L-G16RevC.01  3-Jul-2019

 -----------------------------------------------------------
 # B3LYP/genecp em=GD3BJ int=fine scrf=(smd,solvent=acetone)
 -----------------------------------------------------------

 --------
 Template
 --------
 Symbolic Z-matrix:
 Charge =  0 Multiplicity = 1

                         Standard orientation:
 ---------------------------------------------------------------------
 Center     Atomic      Atomic             Coordinates (Angstroms)
 Number     Number       Type             X           Y           Z
 ---------------------------------------------------------------------
      1         27           0       -1.393446    0.269514    0.172899
      2          7           0       -1.174105   -1.417197    0.951398
      3          8           0       -0.147004   -1.801094    1.762658
      4          6           0       -2.114342   -2.269145    0.693207
      5          6           0       -2.152058   -3.656888    1.235936
      6          1           0       -1.390226   -3.770049    2.003002
      7          1           0       -1.957014   -4.369213    0.435713
      8          1           0       -3.132002   -3.875538    1.653092
      9          7           0       -2.920496   -0.537049   -0.587697
     10          8           0       -3.741047    0.071269   -1.384207
     11          6           0       -3.132902   -1.761283   -0.192163
     12          6           0       -4.312242   -2.574497   -0.621055
     13          1           0       -4.886790   -1.995722   -1.341484
     14          1           0       -4.949263   -2.811992    0.229830
     15          1           0       -3.988539   -3.505871   -1.080931
     16          7           0       -1.776451    2.027816   -0.392341
     17          8           0       -2.729465    2.396574   -1.298140
     18          6           0       -1.040820    2.946538    0.146010
     19          6           0       -1.183156    4.402020   -0.144566
     20          1           0       -1.214426    4.972476    0.780544
     21          1           0       -2.091805    4.572702   -0.716330
     22          1           0       -0.330332    4.745917   -0.727988
     23          7           0       -0.042861    1.139812    1.171117
     24          8           0        0.773062    0.536820    1.977081
     25          6           0       -0.044256    2.438894    1.056635
     26          6           0        0.903105    3.329307    1.795959
     27          1           0        0.375329    3.927499    2.537978
     28          1           0        1.413197    4.001487    1.109641
     29          1           0        1.634934    2.704492    2.304279
     30          1           0        0.371829   -0.917494    1.946772
     31          1           0       -3.249052    1.522144   -1.483797
     32          6           0       -0.263262   -0.107232   -1.480255
     33          1           0       -0.906869   -0.737389   -2.091806
     34          1           0       -0.153969    0.885853   -1.914165
     35          6           0        1.009960   -0.726810   -1.169496
     36          6           0        2.092403    0.069128   -0.956732
     37          1           0        1.934886    1.135493   -1.069896
     38          6           0        1.081683   -2.226483   -1.191478
     39          1           0        0.278382   -2.628341   -1.804091
     40          1           0        2.035529   -2.555042   -1.596179
     41          1           0        0.975947   -2.636101   -0.189303
     42          6           0        3.461618   -0.286377   -0.654413
     43          6           0        4.473115    0.602070   -1.047272
     44          6           0        3.839257   -1.441135    0.038852
     45          6           0        5.802410    0.327388   -0.800656
     46          1           0        4.201507    1.509432   -1.567875
     47          6           0        5.171432   -1.704925    0.297535
     48          1           0        3.088180   -2.111564    0.418318
     49          6           0        6.159805   -0.833271   -0.130290
     50          1           0        6.565188    1.020637   -1.124649
     51          1           0        5.441463   -2.598295    0.842034
     52          1           0        7.199457   -1.048413    0.067992
 ---------------------------------------------------------------------

 SCF Done:  E(RB3LYP) =  -1365.93060377     A.U. after   20 cycles

 The electronic state is 1-A.
 Alpha  occ. eigenvalues --  -19.16585 -19.16556 -19.12754 -19.12562 -14.41024
 Alpha  occ. eigenvalues --  -14.40854 -14.40468 -14.40400 -10.23682 -10.23580
 Alpha  occ. eigenvalues --  -10.21276 -10.21228 -10.18630 -10.18402 -10.17600
 Alpha  occ. eigenvalues --  -10.17562 -10.17535 -10.17507 -10.17475 -10.17463
 Alpha  occ. eigenvalues --  -10.17442 -10.17387 -10.17204 -10.16813 -10.16752
 Alpha  occ. eigenvalues --  -10.15536  -3.74363  -2.44360  -2.43616  -2.42527
 Alpha  occ. eigenvalues --   -1.09024  -1.08478  -1.06895  -1.06331  -0.90566
 Alpha  occ. eigenvalues --   -0.89364  -0.85831  -0.81866  -0.80937  -0.80533
 Alpha  occ. eigenvalues --   -0.75344  -0.74640  -0.74255  -0.74176  -0.70626
 Alpha  occ. eigenvalues --   -0.70486  -0.68397  -0.66383  -0.62303  -0.60284
 Alpha  occ. eigenvalues --   -0.60115  -0.58829  -0.54853  -0.53533  -0.53016
 Alpha  occ. eigenvalues --   -0.52068  -0.51271  -0.50828  -0.49399  -0.49024
 Alpha  occ. eigenvalues --   -0.47625  -0.46912  -0.46610  -0.46126  -0.45466
 Alpha  occ. eigenvalues --   -0.44429  -0.43683  -0.42689  -0.42353  -0.42200
 Alpha  occ. eigenvalues --   -0.42065  -0.41904  -0.41466  -0.40904  -0.40549
 Alpha  occ. eigenvalues --   -0.39993  -0.39610  -0.38987  -0.38658  -0.38191
 Alpha  occ. eigenvalues --   -0.38068  -0.38006  -0.37571  -0.37231  -0.36773
 Alpha  occ. eigenvalues --   -0.36352  -0.34826  -0.34385  -0.34265  -0.33354
 Alpha  occ. eigenvalues --   -0.33125  -0.30898  -0.30324  -0.28322  -0.27909
 Alpha  occ. eigenvalues --   -0.27687  -0.26733  -0.26228  -0.25052  -0.25013
 Alpha  occ. eigenvalues --   -0.24962  -0.22296  -0.20069  -0.19732  -0.19538
 Alpha virt. eigenvalues --   -0.09267  -0.03923  -0.03417  -0.00355   0.00265
 Alpha virt. eigenvalues --    0.00473   0.02660   0.02724   0.03240   0.06364
 Alpha virt. eigenvalues --    0.06748   0.06967   0.07742   0.11159   0.12165

 Mulliken charges:
               1
     1  Co   0.334852
     2  N   -0.176640
     3  O   -0.569053
     4  C    0.327117
     5  C   -0.546120
     6  H    0.199969
     7  H    0.204952
     8  H    0.198826
     9  N   -0.069063
    10  O   -0.556444
    11  C    0.265564
    12  C   -0.547349
    13  H    0.189980
    14  H    0.188848
    15  H    0.186166
    16  N   -0.167717
    17  O   -0.573682
    18  C    0.320976
    19  C   -0.546300
    20  H    0.198230
    21  H    0.199847
    22  H    0.204696
    23  N   -0.079585
    24  O   -0.553249
    25  C    0.268929
    26  C   -0.547250
    27  H    0.188586
    28  H    0.184743
    29  H    0.190591
    30  H    0.473548
    31  H    0.471181
    32  C   -0.410091
    33  H    0.187066
    34  H    0.194427
    35  C    0.233326
    36  C   -0.246104
    37  H    0.150869
    38  C   -0.559539
    39  H    0.165797
    40  H    0.165931
    41  H    0.193660
    42  C    0.150632
    43  C   -0.204636
    44  C   -0.199429
    45  C   -0.153693
    46  H    0.153128
    47  C   -0.158140
    48  H    0.161305
    49  C   -0.150742
    50  H    0.153858
    51  H    0.153616
    52  H    0.153610
 Sum of Mulliken charges =  -0.00000

 Dipole moment (field-independent basis, Debye):
    X=              0.2847    Y=             -0.2562    Z=              0.6788  Tot=              0.7794
 Quadrupole moment (field-independent basis, Debye-Ang):
   XX=           -164.0322   YY=           -133.5284   ZZ=           -174.3399
   XY=             14.5555   XZ=            -11.7556   YZ=              1.5775

 Normal termination of Gaussian 16 at Thu Mar  2 08:59:13 2023.
