 Gaussian 16, Revision C.01,
 Gaussian 16:  ES64L-G16RevC.01  3-Jul-2019

 -----------------------------------------------------------
 # B3LYP/genecp em=GD3BJ int=fine scrf=(smd,solvent=acetone)
 -----------------------------------------------------------

 --------
 Template
 --------
 Symbolic Z-matrix:
 Charge =  0 Multiplicity = 1

                         Standard orientation:
 ---------------------------------------------------------------------
 Center     Atomic      Atomic             Coordinates (Angstroms)
 Number     Number       Type             X           Y           Z
 ---------------------------------------------------------------------
      1         27           0        1.364305    0.197543    0.250479
      2          7           0        2.971123    0.419502   -0.694655
      3          8           0        3.322155    1.508108   -1.438706
      4          6           0        3.804114   -0.566517   -0.600869
      5          6           0        5.150177   -0.580515   -1.240437
      6          1           0        5.154027   -1.286061   -2.069861
      7          1           0        5.907951   -0.891884   -0.525617
      8          1           0        5.383612    0.410613   -1.620874
      9          7           0        2.087785   -1.516737    0.603278
     10          8           0        1.483088   -2.436845    1.289113
     11          6           0        3.302587   -1.684700    0.160478
     12          6           0        4.101438   -2.927837    0.389931
     13          1           0        3.481638   -3.642053    0.928304
     14          1           0        4.990105   -2.712940    0.981743
     15          1           0        4.413832   -3.362896   -0.557157
     16          7           0       -0.088318    0.049219    1.436625
     17          8           0       -0.531522   -1.094003    2.033461
     18          6           0       -0.667504    1.169502    1.724395
     19          6           0       -1.798862    1.302387    2.685102
     20          1           0       -1.607719    2.109976    3.387842
     21          1           0       -1.932786    0.367587    3.223029
     22          1           0       -2.715190    1.531392    2.143400
     23          7           0        0.812868    1.988284    0.162478
     24          8           0        1.377665    2.886147   -0.583993
     25          6           0       -0.139020    2.297822    0.998137
     26          6           0       -0.664219    3.687068    1.170311
     27          1           0       -0.164580    4.337412    0.455235
     28          1           0       -0.468367    4.052377    2.177522
     29          1           0       -1.737645    3.714405    0.996186
     30          1           0        2.585304    2.205513   -1.227196
     31          1           0        0.194705   -1.795372    1.800084
     32          6           0        0.394640   -0.375177   -1.443536
     33          1           0        0.910165    0.180954   -2.225636
     34          1           0        0.616892   -1.441354   -1.484943
     35          6           0       -1.030717   -0.102479   -1.427317
     36          6           0       -1.879987   -1.023848   -0.903444
     37          1           0       -1.429974   -1.896218   -0.446328
     38          6           0       -1.481735    1.201532   -2.020168
     39          1           0       -2.392504    1.558919   -1.547889
     40          1           0       -0.705048    1.952875   -1.912527
     41          1           0       -1.668623    1.077184   -3.086388
     42          6           0       -3.323409   -0.974950   -0.781549
     43          6           0       -3.906442   -1.587300    0.335784
     44          6           0       -4.168609   -0.378324   -1.721486
     45          6           0       -5.272137   -1.555220    0.532184
     46          1           0       -3.265310   -2.063875    1.063102
     47          6           0       -5.538237   -0.365656   -1.530157
     48          1           0       -3.757514    0.037767   -2.626103
     49          6           0       -6.095775   -0.939752   -0.399167
     50          1           0       -5.700498   -2.017409    1.409830
     51          1           0       -6.176554    0.093793   -2.271100
     52          1           0       -7.165265   -0.919709   -0.249833
 ---------------------------------------------------------------------

 SCF Done:  E(RB3LYP) =  -1365.93052409     A.U. after   20 cycles

 The electronic state is 1-A.
 Alpha  occ. eigenvalues --  -19.16666 -19.16657 -19.12772 -19.12716 -14.40994
 Alpha  occ. eigenvalues --  -14.40946 -14.40558 -14.40398 -10.23685 -10.23471
 Alpha  occ. eigenvalues --  -10.21390 -10.21359 -10.18581 -10.18441 -10.17567
 Alpha  occ. eigenvalues --  -10.17541 -10.17495 -10.17472 -10.17471 -10.17454
 Alpha  occ. eigenvalues --  -10.17406 -10.17375 -10.16982 -10.16818 -10.16814
 Alpha  occ. eigenvalues --  -10.15699  -3.74535  -2.44568  -2.43727  -2.42725
 Alpha  occ. eigenvalues --   -1.09078  -1.08541  -1.06898  -1.06355  -0.90627
 Alpha  occ. eigenvalues --   -0.89432  -0.85798  -0.81930  -0.80949  -0.80611
 Alpha  occ. eigenvalues --   -0.75331  -0.74650  -0.74219  -0.74195  -0.70656
 Alpha  occ. eigenvalues --   -0.70535  -0.68404  -0.66417  -0.62336  -0.60331
 Alpha  occ. eigenvalues --   -0.60086  -0.58798  -0.54904  -0.53557  -0.52979
 Alpha  occ. eigenvalues --   -0.52125  -0.51328  -0.50881  -0.49424  -0.49010
 Alpha  occ. eigenvalues --   -0.47664  -0.46998  -0.46642  -0.46174  -0.45344
 Alpha  occ. eigenvalues --   -0.44516  -0.43388  -0.42767  -0.42342  -0.42292
 Alpha  occ. eigenvalues --   -0.42058  -0.41941  -0.41526  -0.40915  -0.40611
 Alpha  occ. eigenvalues --   -0.40002  -0.39593  -0.39124  -0.38838  -0.38446
 Alpha  occ. eigenvalues --   -0.38084  -0.38021  -0.37601  -0.37302  -0.36808
 Alpha  occ. eigenvalues --   -0.36266  -0.34916  -0.34340  -0.34287  -0.33283
 Alpha  occ. eigenvalues --   -0.32904  -0.31032  -0.30517  -0.28399  -0.28000
 Alpha  occ. eigenvalues --   -0.27758  -0.26604  -0.26284  -0.25208  -0.25058
 Alpha  occ. eigenvalues --   -0.24978  -0.22365  -0.20158  -0.19810  -0.19609
 Alpha virt. eigenvalues --   -0.09239  -0.03877  -0.03449  -0.00444   0.00135
 Alpha virt. eigenvalues --    0.00441   0.02606   0.02896   0.03278   0.06018
 Alpha virt. eigenvalues --    0.06717   0.06794   0.07825   0.11038   0.12261

 Mulliken charges:
               1
     1  Co   0.334519
     2  N   -0.165413
     3  O   -0.573009
     4  C    0.327005
     5  C   -0.545714
     6  H    0.205609
     7  H    0.199022
     8  H    0.200219
     9  N   -0.079949
    10  O   -0.557496
    11  C    0.268859
    12  C   -0.548270
    13  H    0.190386
    14  H    0.189454
    15  H    0.186995
    16  N   -0.168726
    17  O   -0.568315
    18  C    0.323085
    19  C   -0.546915
    20  H    0.197183
    21  H    0.198917
    22  H    0.204990
    23  N   -0.084216
    24  O   -0.557079
    25  C    0.277301
    26  C   -0.549390
    27  H    0.190390
    28  H    0.189357
    29  H    0.187476
    30  H    0.471221
    31  H    0.471157
    32  C   -0.405839
    33  H    0.191263
    34  H    0.198717
    35  C    0.232225
    36  C   -0.250918
    37  H    0.150259
    38  C   -0.559824
    39  H    0.168033
    40  H    0.181955
    41  H    0.178755
    42  C    0.140866
    43  C   -0.202764
    44  C   -0.200890
    45  C   -0.155161
    46  H    0.155426
    47  C   -0.158379
    48  H    0.159950
    49  C   -0.151716
    50  H    0.153421
    51  H    0.153264
    52  H    0.152703
 Sum of Mulliken charges =  -0.00000

 Dipole moment (field-independent basis, Debye):
    X=              0.2316    Y=              0.5430    Z=              0.8177  Tot=              1.0086
 Quadrupole moment (field-independent basis, Debye-Ang):
   XX=           -137.3814   YY=           -172.9351   ZZ=           -160.7739
   XY=            -17.3034   XZ=             -3.1361   YZ=             11.3518

 Normal termination of Gaussian 16 at Thu Mar  2 08:22:52 2023.
