 Gaussian 16, Revision C.01,
 Gaussian 16:  ES64L-G16RevC.01  3-Jul-2019

 -----------------------------------------------------------
 # B3LYP/genecp em=GD3BJ int=fine scrf=(smd,solvent=acetone)
 -----------------------------------------------------------

 --------
 Template
 --------
 Symbolic Z-matrix:
 Charge =  0 Multiplicity = 1

                         Standard orientation:
 ---------------------------------------------------------------------
 Center     Atomic      Atomic             Coordinates (Angstroms)
 Number     Number       Type             X           Y           Z
 ---------------------------------------------------------------------
      1         27           0       -1.345626    0.248707    0.273798
      2          7           0       -0.344716    1.839953    0.363693
      3          8           0       -0.546234    2.961824   -0.389837
      4          6           0        0.612289    1.839250    1.234666
      5          6           0        1.512453    3.000068    1.485518
      6          1           0        1.546804    3.230486    2.547942
      7          1           0        1.157094    3.865448    0.932174
      8          1           0        2.522299    2.757332    1.158611
      9          7           0       -0.057227   -0.341658    1.533450
     10          8           0       -0.025652   -1.535030    2.044955
     11          6           0        0.767656    0.586327    1.930270
     12          6           0        1.809536    0.372007    2.980847
     13          1           0        2.803267    0.548879    2.573962
     14          1           0        1.742147   -0.655824    3.331452
     15          1           0        1.654935    1.045467    3.822441
     16          7           0       -2.454679   -1.257834    0.398033
     17          8           0       -2.141632   -2.445383    0.990689
     18          6           0       -3.631511   -1.111209   -0.122239
     19          6           0       -4.686956   -2.163355   -0.102871
     20          1           0       -4.377310   -2.979255    0.545134
     21          1           0       -4.839366   -2.549527   -1.109529
     22          1           0       -5.629221   -1.748895    0.247434
     23          7           0       -2.785214    0.945492   -0.711246
     24          8           0       -2.792425    2.128570   -1.233865
     25          6           0       -3.832136    0.169255   -0.754123
     26          6           0       -5.117706    0.555221   -1.412996
     27          1           0       -4.987279    1.529872   -1.878723
     28          1           0       -5.924053    0.616459   -0.683495
     29          1           0       -5.392944   -0.174051   -2.171948
     30          1           0       -1.452905    2.791300   -0.851847
     31          1           0       -1.246671   -2.255672    1.476526
     32          6           0       -0.476545   -0.341576   -1.456815
     33          1           0       -1.159641   -1.083517   -1.868045
     34          1           0       -0.472679    0.571136   -2.051479
     35          6           0        0.851525   -0.865076   -1.200394
     36          6           0        1.917591   -0.026045   -1.291750
     37          1           0        1.713787    0.986410   -1.620347
     38          6           0        0.973126   -2.333267   -0.917050
     39          1           0        0.164477   -2.874496   -1.401692
     40          1           0        1.924566   -2.720288   -1.271379
     41          1           0        0.896189   -2.525685    0.152274
     42          6           0        3.319386   -0.295944   -1.051526
     43          6           0        3.775699   -1.227149   -0.112738
     44          6           0        4.274110    0.453141   -1.752799
     45          6           0        5.129642   -1.418685    0.090477
     46          1           0        3.067601   -1.767625    0.492375
     47          6           0        5.624831    0.247160   -1.558689
     48          1           0        3.939354    1.190782   -2.468116
     49          6           0        6.060171   -0.695112   -0.638316
     50          1           0        5.462163   -2.136718    0.826215
     51          1           0        6.343949    0.825712   -2.120300
     52          1           0        7.116801   -0.854420   -0.482069
 ---------------------------------------------------------------------

 SCF Done:  E(RB3LYP) =  -1365.93378106     A.U. after   20 cycles

 The electronic state is 1-A.
 Alpha  occ. eigenvalues --  -19.16733 -19.16616 -19.12823 -19.12803 -14.41191
 Alpha  occ. eigenvalues --  -14.40854 -14.40553 -14.40499 -10.23679 -10.23547
 Alpha  occ. eigenvalues --  -10.21349 -10.21255 -10.18657 -10.18495 -10.17635
 Alpha  occ. eigenvalues --  -10.17607 -10.17570 -10.17531 -10.17498 -10.17471
 Alpha  occ. eigenvalues --  -10.17467 -10.17407 -10.17077 -10.16834 -10.16742
 Alpha  occ. eigenvalues --  -10.15357  -3.74561  -2.44597  -2.43774  -2.42729
 Alpha  occ. eigenvalues --   -1.09104  -1.08556  -1.07024  -1.06423  -0.90646
 Alpha  occ. eigenvalues --   -0.89464  -0.85868  -0.81935  -0.80983  -0.80634
 Alpha  occ. eigenvalues --   -0.75365  -0.74666  -0.74290  -0.74205  -0.70656
 Alpha  occ. eigenvalues --   -0.70520  -0.68323  -0.66429  -0.62342  -0.60357
 Alpha  occ. eigenvalues --   -0.60148  -0.58843  -0.54930  -0.53624  -0.52980
 Alpha  occ. eigenvalues --   -0.52136  -0.51396  -0.50923  -0.49474  -0.49073
 Alpha  occ. eigenvalues --   -0.47731  -0.46949  -0.46695  -0.45994  -0.45621
 Alpha  occ. eigenvalues --   -0.44572  -0.43433  -0.42772  -0.42484  -0.42291
 Alpha  occ. eigenvalues --   -0.42098  -0.41979  -0.41384  -0.40878  -0.40613
 Alpha  occ. eigenvalues --   -0.40134  -0.39526  -0.38953  -0.38881  -0.38156
 Alpha  occ. eigenvalues --   -0.38061  -0.37855  -0.37595  -0.37351  -0.36731
 Alpha  occ. eigenvalues --   -0.36415  -0.34777  -0.34626  -0.34304  -0.33490
 Alpha  occ. eigenvalues --   -0.33129  -0.30992  -0.30574  -0.28303  -0.27954
 Alpha  occ. eigenvalues --   -0.27732  -0.26806  -0.26431  -0.25231  -0.25101
 Alpha  occ. eigenvalues --   -0.25053  -0.22473  -0.20366  -0.19801  -0.19402
 Alpha virt. eigenvalues --   -0.09414  -0.03875  -0.03319  -0.00503   0.00149
 Alpha virt. eigenvalues --    0.00376   0.02630   0.02812   0.03257   0.06544
 Alpha virt. eigenvalues --    0.06668   0.06981   0.07821   0.11160   0.12477

 Mulliken charges:
               1
     1  Co   0.328543
     2  N   -0.171112
     3  O   -0.571452
     4  C    0.330365
     5  C   -0.547995
     6  H    0.199046
     7  H    0.199619
     8  H    0.204480
     9  N   -0.090535
    10  O   -0.549855
    11  C    0.274246
    12  C   -0.549684
    13  H    0.186974
    14  H    0.189571
    15  H    0.187345
    16  N   -0.169195
    17  O   -0.572343
    18  C    0.325590
    19  C   -0.546490
    20  H    0.200299
    21  H    0.205225
    22  H    0.199172
    23  N   -0.064052
    24  O   -0.555098
    25  C    0.268251
    26  C   -0.546931
    27  H    0.190441
    28  H    0.189623
    29  H    0.186909
    30  H    0.469725
    31  H    0.472069
    32  C   -0.396779
    33  H    0.186140
    34  H    0.190532
    35  C    0.236451
    36  C   -0.267523
    37  H    0.153750
    38  C   -0.557726
    39  H    0.164671
    40  H    0.163267
    41  H    0.194083
    42  C    0.149702
    43  C   -0.202149
    44  C   -0.203827
    45  C   -0.159049
    46  H    0.165487
    47  C   -0.154062
    48  H    0.153528
    49  C   -0.151240
    50  H    0.154154
    51  H    0.154194
    52  H    0.153642
 Sum of Mulliken charges =  -0.00000

 Dipole moment (field-independent basis, Debye):
    X=             -0.1776    Y=              0.1640    Z=              0.9172  Tot=              0.9485
 Quadrupole moment (field-independent basis, Debye-Ang):
   XX=           -133.4564   YY=           -173.3544   ZZ=           -164.3706
   XY=             13.8008   XZ=              5.1574   YZ=             10.9369

 Normal termination of Gaussian 16 at Thu Mar  2 08:03:30 2023.
