 Gaussian 16, Revision C.01,
 Gaussian 16:  ES64L-G16RevC.01  3-Jul-2019

 -----------------------------------------------------------
 # B3LYP/genecp em=GD3BJ int=fine scrf=(smd,solvent=acetone)
 -----------------------------------------------------------

 --------
 Template
 --------
 Symbolic Z-matrix:
 Charge =  0 Multiplicity = 1

                         Standard orientation:
 ---------------------------------------------------------------------
 Center     Atomic      Atomic             Coordinates (Angstroms)
 Number     Number       Type             X           Y           Z
 ---------------------------------------------------------------------
      1         27           0        1.404346   -0.001561    0.161843
      2          7           0        0.414827    1.307301    1.071957
      3          8           0       -0.672994    1.093618    1.867016
      4          6           0        0.856593    2.516921    0.934714
      5          6           0        0.267878    3.704877    1.617893
      6          1           0       -0.093771    4.418635    0.880081
      7          1           0        1.024280    4.201804    2.222365
      8          1           0       -0.555492    3.391225    2.254404
      9          7           0        2.342054    1.497775   -0.496061
     10          8           0        3.321810    1.428489   -1.341832
     11          6           0        1.975046    2.632047    0.031507
     12          6           0        2.627240    3.939795   -0.284883
     13          1           0        3.028220    4.401004    0.616010
     14          1           0        1.911778    4.625730   -0.734686
     15          1           0        3.439134    3.759928   -0.986651
     16          7           0        2.588323   -1.299605   -0.510234
     17          8           0        3.599083   -1.089509   -1.402050
     18          6           0        2.407365   -2.492624   -0.042156
     19          6           0        3.251873   -3.666150   -0.405858
     20          1           0        3.578315   -4.190906    0.488847
     21          1           0        4.115477   -3.331752   -0.974827
     22          1           0        2.674455   -4.359716   -1.015213
     23          7           0        0.640058   -1.485178    1.041450
     24          8           0       -0.386672   -1.418926    1.827415
     25          6           0        1.286846   -2.603335    0.859587
     26          6           0        0.900132   -3.892398    1.512332
     27          1           0       -0.021934   -3.733356    2.068019
     28          1           0        1.674771   -4.225855    2.201586
     29          1           0        0.744682   -4.669021    0.766400
     30          1           0       -0.734946    0.061712    1.935749
     31          1           0        3.612510   -0.062162   -1.529845
     32          6           0        0.235993   -0.172585   -1.488666
     33          1           0        0.765635    0.424525   -2.229447
     34          1           0        0.292378   -1.235774   -1.719742
     35          6           0       -1.121890    0.273807   -1.247749
     36          6           0       -2.056645   -0.634554   -0.863172
     37          1           0       -1.737727   -1.667014   -0.790572
     38          6           0       -1.450595    1.713047   -1.529024
     39          1           0       -1.396939    2.312265   -0.623618
     40          1           0       -0.741598    2.124688   -2.242883
     41          1           0       -2.456278    1.799162   -1.932767
     42          6           0       -3.464274   -0.432310   -0.586371
     43          6           0       -3.975048    0.726644    0.004865
     44          6           0       -4.358567   -1.466679   -0.890671
     45          6           0       -5.329322    0.854002    0.251438
     46          1           0       -3.301835    1.505455    0.320019
     47          6           0       -5.712113   -1.328464   -0.659540
     48          1           0       -3.978466   -2.377862   -1.330217
     49          6           0       -6.205516   -0.163103   -0.091705
     50          1           0       -5.705342    1.752784    0.718472
     51          1           0       -6.387232   -2.132501   -0.915049
     52          1           0       -7.264026   -0.055889    0.094375
 ---------------------------------------------------------------------

 SCF Done:  E(RB3LYP) =  -1365.93161553     A.U. after   21 cycles

 The electronic state is 1-A.
 Alpha  occ. eigenvalues --  -19.16587 -19.16469 -19.12704 -19.12527 -14.40961
 Alpha  occ. eigenvalues --  -14.40896 -14.40475 -14.40395 -10.23646 -10.23546
 Alpha  occ. eigenvalues --  -10.21301 -10.21279 -10.18535 -10.18405 -10.17563
 Alpha  occ. eigenvalues --  -10.17529 -10.17496 -10.17469 -10.17466 -10.17429
 Alpha  occ. eigenvalues --  -10.17398 -10.17379 -10.17149 -10.16809 -10.16770
 Alpha  occ. eigenvalues --  -10.15778  -3.74348  -2.44354  -2.43603  -2.42504
 Alpha  occ. eigenvalues --   -1.08996  -1.08446  -1.06866  -1.06316  -0.90546
 Alpha  occ. eigenvalues --   -0.89355  -0.85806  -0.81852  -0.80950  -0.80534
 Alpha  occ. eigenvalues --   -0.75288  -0.74633  -0.74214  -0.74175  -0.70621
 Alpha  occ. eigenvalues --   -0.70493  -0.68466  -0.66369  -0.62274  -0.60278
 Alpha  occ. eigenvalues --   -0.60073  -0.58767  -0.54838  -0.53504  -0.52974
 Alpha  occ. eigenvalues --   -0.52045  -0.51230  -0.50819  -0.49524  -0.48978
 Alpha  occ. eigenvalues --   -0.47579  -0.46877  -0.46709  -0.46106  -0.45315
 Alpha  occ. eigenvalues --   -0.44435  -0.43643  -0.42696  -0.42396  -0.42203
 Alpha  occ. eigenvalues --   -0.42075  -0.41928  -0.41469  -0.40690  -0.40535
 Alpha  occ. eigenvalues --   -0.39868  -0.39650  -0.39152  -0.38732  -0.38152
 Alpha  occ. eigenvalues --   -0.38087  -0.38010  -0.37582  -0.37230  -0.36790
 Alpha  occ. eigenvalues --   -0.36408  -0.34925  -0.34324  -0.34219  -0.33438
 Alpha  occ. eigenvalues --   -0.33104  -0.30859  -0.30362  -0.28247  -0.27882
 Alpha  occ. eigenvalues --   -0.27671  -0.26520  -0.26181  -0.25064  -0.24967
 Alpha  occ. eigenvalues --   -0.24918  -0.22253  -0.20233  -0.19728  -0.19460
 Alpha virt. eigenvalues --   -0.09184  -0.03704  -0.03369  -0.00333   0.00256
 Alpha virt. eigenvalues --    0.00530   0.02619   0.02783   0.03233   0.06282
 Alpha virt. eigenvalues --    0.06726   0.06842   0.07729   0.11211   0.12209

 Mulliken charges:
               1
     1  Co   0.329394
     2  N   -0.182590
     3  O   -0.569617
     4  C    0.326148
     5  C   -0.548110
     6  H    0.201963
     7  H    0.201621
     8  H    0.200476
     9  N   -0.071506
    10  O   -0.557122
    11  C    0.267413
    12  C   -0.547732
    13  H    0.187442
    14  H    0.188101
    15  H    0.190338
    16  N   -0.163066
    17  O   -0.573560
    18  C    0.324213
    19  C   -0.546678
    20  H    0.198658
    21  H    0.200061
    22  H    0.204356
    23  N   -0.074423
    24  O   -0.553318
    25  C    0.265500
    26  C   -0.547572
    27  H    0.190157
    28  H    0.188732
    29  H    0.185828
    30  H    0.474313
    31  H    0.469864
    32  C   -0.405122
    33  H    0.188225
    34  H    0.189481
    35  C    0.235598
    36  C   -0.245345
    37  H    0.153758
    38  C   -0.554004
    39  H    0.188358
    40  H    0.169049
    41  H    0.168531
    42  C    0.141350
    43  C   -0.197487
    44  C   -0.201214
    45  C   -0.158149
    46  H    0.160885
    47  C   -0.154412
    48  H    0.152308
    49  C   -0.150721
    50  H    0.153041
    51  H    0.153557
    52  H    0.153031
 Sum of Mulliken charges =  -0.00000

 Dipole moment (field-independent basis, Debye):
    X=             -0.0799    Y=              0.2839    Z=              0.8942  Tot=              0.9416
 Quadrupole moment (field-independent basis, Debye-Ang):
   XX=           -168.0790   YY=           -129.4436   ZZ=           -174.0940
   XY=             -6.9578   XZ=             12.2875   YZ=              7.1041

 Normal termination of Gaussian 16 at Thu Mar  2 09:01:59 2023.
