 Gaussian 16, Revision C.01,
 Gaussian 16:  ES64L-G16RevC.01  3-Jul-2019

 -----------------------------------------------------------
 # B3LYP/genecp em=GD3BJ int=fine scrf=(smd,solvent=acetone)
 -----------------------------------------------------------

 --------
 Template
 --------
 Symbolic Z-matrix:
 Charge =  0 Multiplicity = 1

                         Standard orientation:
 ---------------------------------------------------------------------
 Center     Atomic      Atomic             Coordinates (Angstroms)
 Number     Number       Type             X           Y           Z
 ---------------------------------------------------------------------
      1         27           0       -1.350238    0.318761    0.229008
      2          7           0       -2.269100   -1.266092    0.629118
      3          8           0       -1.815360   -2.288123    1.409123
      4          6           0       -3.453545   -1.354444    0.113158
      5          6           0       -4.367508   -2.513127    0.322377
      6          1           0       -5.350988   -2.169515    0.633966
      7          1           0       -3.950689   -3.174961    1.077120
      8          1           0       -4.480508   -3.064851   -0.609536
      9          7           0       -2.876109    0.672984   -0.809348
     10          8           0       -3.038088    1.751402   -1.504581
     11          6           0       -3.814834   -0.226693   -0.709249
     12          6           0       -5.141267   -0.113576   -1.390128
     13          1           0       -5.946568   -0.043082   -0.660323
     14          1           0       -5.322440   -0.980751   -2.021685
     15          1           0       -5.139154    0.785637   -2.002663
     16          7           0       -0.546625    2.007802    0.029797
     17          8           0       -0.894035    2.962068   -0.884963
     18          6           0        0.422385    2.256920    0.850577
     19          6           0        1.182565    3.538608    0.877592
     20          1           0        0.716023    4.255537    0.206931
     21          1           0        2.207719    3.362704    0.555507
     22          1           0        1.209638    3.941885    1.887365
     23          7           0        0.020927    0.093574    1.523934
     24          8           0        0.195083   -0.984383    2.225915
     25          6           0        0.738054    1.161741    1.733205
     26          6           0        1.813743    1.247412    2.768077
     27          1           0        1.576208    2.008457    3.510138
     28          1           0        2.767869    1.498086    2.308981
     29          1           0        1.895719    0.282391    3.263601
     30          1           0       -0.946955   -1.913289    1.832538
     31          1           0       -1.783278    2.616482   -1.278930
     32          6           0       -0.441747   -0.438589   -1.413714
     33          1           0       -1.130721   -1.197587   -1.781818
     34          1           0       -0.396285    0.416201   -2.087597
     35          6           0        0.861734   -0.972441   -1.069407
     36          6           0        1.959915   -0.184038   -1.217622
     37          1           0        1.797317    0.799513   -1.643098
     38          6           0        0.926008   -2.405165   -0.629936
     39          1           0        1.840275   -2.876895   -0.980537
     40          1           0        0.897325   -2.470347    0.456570
     41          1           0        0.069933   -2.954634   -1.012383
     42          6           0        3.349061   -0.484971   -0.943280
     43          6           0        3.770240   -1.365581    0.058972
     44          6           0        4.332896    0.175198   -1.692855
     45          6           0        5.115831   -1.596775    0.275818
     46          1           0        3.044805   -1.833279    0.702167
     47          6           0        5.674583   -0.070406   -1.483495
     48          1           0        4.027647    0.873834   -2.458902
     49          6           0        6.073619   -0.964292   -0.500515
     50          1           0        5.420077   -2.275232    1.059783
     51          1           0        6.415355    0.438780   -2.082936
     52          1           0        7.123231   -1.155895   -0.333395
 ---------------------------------------------------------------------

 SCF Done:  E(RB3LYP) =  -1365.93359491     A.U. after   20 cycles

 The electronic state is 1-A.
 Alpha  occ. eigenvalues --  -19.16682 -19.16602 -19.12829 -19.12821 -14.41192
 Alpha  occ. eigenvalues --  -14.40854 -14.40541 -14.40480 -10.23650 -10.23595
 Alpha  occ. eigenvalues --  -10.21322 -10.21195 -10.18660 -10.18536 -10.17611
 Alpha  occ. eigenvalues --  -10.17579 -10.17544 -10.17517 -10.17472 -10.17464
 Alpha  occ. eigenvalues --  -10.17457 -10.17431 -10.17129 -10.16827 -10.16727
 Alpha  occ. eigenvalues --  -10.15421  -3.74516  -2.44556  -2.43731  -2.42677
 Alpha  occ. eigenvalues --   -1.09095  -1.08542  -1.07022  -1.06424  -0.90631
 Alpha  occ. eigenvalues --   -0.89445  -0.85846  -0.81924  -0.81004  -0.80612
 Alpha  occ. eigenvalues --   -0.75360  -0.74664  -0.74263  -0.74206  -0.70646
 Alpha  occ. eigenvalues --   -0.70504  -0.68354  -0.66447  -0.62335  -0.60338
 Alpha  occ. eigenvalues --   -0.60121  -0.58844  -0.54925  -0.53626  -0.52972
 Alpha  occ. eigenvalues --   -0.52119  -0.51383  -0.50906  -0.49419  -0.49079
 Alpha  occ. eigenvalues --   -0.47727  -0.46905  -0.46656  -0.46001  -0.45669
 Alpha  occ. eigenvalues --   -0.44548  -0.43444  -0.42752  -0.42433  -0.42252
 Alpha  occ. eigenvalues --   -0.42069  -0.41952  -0.41417  -0.40883  -0.40591
 Alpha  occ. eigenvalues --   -0.40182  -0.39538  -0.38955  -0.38831  -0.38198
 Alpha  occ. eigenvalues --   -0.38069  -0.37907  -0.37583  -0.37327  -0.36774
 Alpha  occ. eigenvalues --   -0.36420  -0.34729  -0.34626  -0.34311  -0.33442
 Alpha  occ. eigenvalues --   -0.33128  -0.30961  -0.30578  -0.28278  -0.27943
 Alpha  occ. eigenvalues --   -0.27726  -0.26845  -0.26403  -0.25205  -0.25087
 Alpha  occ. eigenvalues --   -0.25026  -0.22468  -0.20360  -0.19783  -0.19359
 Alpha virt. eigenvalues --   -0.09362  -0.03839  -0.03358  -0.00498   0.00203
 Alpha virt. eigenvalues --    0.00424   0.02632   0.02791   0.03247   0.06456
 Alpha virt. eigenvalues --    0.06659   0.07033   0.07815   0.11157   0.12408

 Mulliken charges:
               1
     1  Co   0.328266
     2  N   -0.169128
     3  O   -0.571952
     4  C    0.323685
     5  C   -0.546725
     6  H    0.199255
     7  H    0.200488
     8  H    0.204834
     9  N   -0.063609
    10  O   -0.554972
    11  C    0.268386
    12  C   -0.546796
    13  H    0.189301
    14  H    0.186652
    15  H    0.190375
    16  N   -0.172317
    17  O   -0.572032
    18  C    0.327522
    19  C   -0.547280
    20  H    0.199667
    21  H    0.204775
    22  H    0.199330
    23  N   -0.088389
    24  O   -0.550547
    25  C    0.275176
    26  C   -0.549236
    27  H    0.187436
    28  H    0.187060
    29  H    0.189885
    30  H    0.473563
    31  H    0.469921
    32  C   -0.398780
    33  H    0.184591
    34  H    0.190305
    35  C    0.239843
    36  C   -0.267228
    37  H    0.153567
    38  C   -0.551928
    39  H    0.164068
    40  H    0.188693
    41  H    0.165401
    42  C    0.150887
    43  C   -0.201995
    44  C   -0.204715
    45  C   -0.158093
    46  H    0.163695
    47  C   -0.154058
    48  H    0.153214
    49  C   -0.151333
    50  H    0.153859
    51  H    0.153929
    52  H    0.153482
 Sum of Mulliken charges =  -0.00000

 Dipole moment (field-independent basis, Debye):
    X=             -0.1316    Y=              0.1151    Z=              0.8096  Tot=              0.8283
 Quadrupole moment (field-independent basis, Debye-Ang):
   XX=           -137.6225   YY=           -164.7874   ZZ=           -169.0491
   XY=             17.8731   XZ=              0.2737   YZ=             11.6361

 Normal termination of Gaussian 16 at Thu Mar  2 08:10:35 2023.
