 Gaussian 16, Revision C.01,
 Gaussian 16:  ES64L-G16RevC.01  3-Jul-2019

 -----------------------------------------------------------
 # B3LYP/genecp em=GD3BJ int=fine scrf=(smd,solvent=acetone)
 -----------------------------------------------------------

 --------
 Template
 --------
 Symbolic Z-matrix:
 Charge =  0 Multiplicity = 1

                         Standard orientation:
 ---------------------------------------------------------------------
 Center     Atomic      Atomic             Coordinates (Angstroms)
 Number     Number       Type             X           Y           Z
 ---------------------------------------------------------------------
      1         27           0        1.361429    0.223911    0.218245
      2          7           0        3.013695   -0.029337   -0.632743
      3          8           0        3.661394    0.877952   -1.417981
      4          6           0        3.574473   -1.174344   -0.410051
      5          6           0        4.908018   -1.565696   -0.948497
      6          1           0        4.783032   -2.318739   -1.725097
      7          1           0        5.527077   -1.988631   -0.161068
      8          1           0        5.397317   -0.695504   -1.378373
      9          7           0        1.624534   -1.572041    0.746640
     10          8           0        0.777612   -2.258139    1.450020
     11          6           0        2.775556   -2.070108    0.390815
     12          6           0        3.224405   -3.450671    0.749725
     13          1           0        3.467338   -4.019660   -0.145267
     14          1           0        2.418218   -3.947258    1.285981
     15          1           0        4.106169   -3.417172    1.388053
     16          7           0       -0.135252    0.542107    1.318787
     17          8           0       -0.842115   -0.397425    2.007250
     18          6           0       -0.472265    1.785716    1.431861
     19          6           0       -1.599555    2.271789    2.276910
     20          1           0       -2.320555    2.806509    1.662486
     21          1           0       -1.231487    2.956148    3.039212
     22          1           0       -2.088395    1.426141    2.753079
     23          7           0        1.245836    2.078181   -0.074376
     24          8           0        2.043845    2.740854   -0.853519
     25          6           0        0.336436    2.680652    0.640284
     26          6           0        0.125896    4.161054    0.628993
     27          1           0       -0.876729    4.402800    0.281232
     28          1           0        0.855582    4.609989   -0.041964
     29          1           0        0.253608    4.576853    1.626903
     30          1           0        3.095364    1.742220   -1.325786
     31          1           0       -0.301330   -1.270194    1.860032
     32          6           0        0.391541   -0.262947   -1.495006
     33          1           0        0.863464    0.369962   -2.245831
     34          1           0        0.650325   -1.313040   -1.629548
     35          6           0       -1.039952   -0.045873   -1.399750
     36          6           0       -1.830657   -1.012881   -0.866613
     37          1           0       -1.331621   -1.882491   -0.457016
     38          6           0       -1.563890    1.265705   -1.911150
     39          1           0       -0.809700    2.038591   -1.793824
     40          1           0       -1.787133    1.185087   -2.974476
     41          1           0       -2.468486    1.562746   -1.388160
     42          6           0       -3.268769   -1.010524   -0.683030
     43          6           0       -4.164897   -0.440185   -1.591549
     44          6           0       -3.791393   -1.642869    0.451971
     45          6           0       -5.527054   -0.476932   -1.356104
     46          1           0       -3.797616   -0.006616   -2.507035
     47          6           0       -5.150438   -1.660119    0.692495
     48          1           0       -3.111088   -2.095034    1.158059
     49          6           0       -6.026001   -1.074276   -0.209884
     50          1           0       -6.205493   -0.038735   -2.073928
     51          1           0       -5.532601   -2.138376    1.582829
     52          1           0       -7.090127   -1.094451   -0.025940
 ---------------------------------------------------------------------

 SCF Done:  E(RB3LYP) =  -1365.93176346     A.U. after   21 cycles

 The electronic state is 1-A.
 Alpha  occ. eigenvalues --  -19.16640 -19.16492 -19.12767 -19.12652 -14.40939
 Alpha  occ. eigenvalues --  -14.40937 -14.40607 -14.40386 -10.23637 -10.23467
 Alpha  occ. eigenvalues --  -10.21402 -10.21321 -10.18477 -10.18410 -10.17510
 Alpha  occ. eigenvalues --  -10.17478 -10.17458 -10.17445 -10.17436 -10.17402
 Alpha  occ. eigenvalues --  -10.17368 -10.17327 -10.16938 -10.16824 -10.16796
 Alpha  occ. eigenvalues --  -10.15822  -3.74448  -2.44480  -2.43662  -2.42615
 Alpha  occ. eigenvalues --   -1.09062  -1.08524  -1.06861  -1.06322  -0.90598
 Alpha  occ. eigenvalues --   -0.89387  -0.85737  -0.81915  -0.80935  -0.80576
 Alpha  occ. eigenvalues --   -0.75273  -0.74631  -0.74174  -0.74161  -0.70647
 Alpha  occ. eigenvalues --   -0.70517  -0.68430  -0.66394  -0.62313  -0.60295
 Alpha  occ. eigenvalues --   -0.60011  -0.58748  -0.54905  -0.53531  -0.52908
 Alpha  occ. eigenvalues --   -0.52092  -0.51294  -0.50843  -0.49451  -0.48988
 Alpha  occ. eigenvalues --   -0.47613  -0.47028  -0.46629  -0.46054  -0.45267
 Alpha  occ. eigenvalues --   -0.44472  -0.43379  -0.42777  -0.42277  -0.42231
 Alpha  occ. eigenvalues --   -0.42007  -0.41851  -0.41555  -0.40937  -0.40560
 Alpha  occ. eigenvalues --   -0.39990  -0.39634  -0.39285  -0.38804  -0.38255
 Alpha  occ. eigenvalues --   -0.38105  -0.38021  -0.37596  -0.37382  -0.36746
 Alpha  occ. eigenvalues --   -0.36475  -0.34960  -0.34306  -0.34215  -0.33228
 Alpha  occ. eigenvalues --   -0.32896  -0.30926  -0.30424  -0.28293  -0.28011
 Alpha  occ. eigenvalues --   -0.27734  -0.26418  -0.26230  -0.25115  -0.25025
 Alpha  occ. eigenvalues --   -0.24895  -0.22369  -0.20197  -0.19808  -0.19454
 Alpha virt. eigenvalues --   -0.09152  -0.03748  -0.03353  -0.00426   0.00271
 Alpha virt. eigenvalues --    0.00532   0.02582   0.02816   0.03350   0.05976
 Alpha virt. eigenvalues --    0.06716   0.06825   0.07832   0.11028   0.12236

 Mulliken charges:
               1
     1  Co   0.322234
     2  N   -0.159612
     3  O   -0.573058
     4  C    0.324104
     5  C   -0.545691
     6  H    0.205247
     7  H    0.198707
     8  H    0.200449
     9  N   -0.078218
    10  O   -0.556013
    11  C    0.270490
    12  C   -0.548024
    13  H    0.187207
    14  H    0.190479
    15  H    0.189424
    16  N   -0.171848
    17  O   -0.567067
    18  C    0.326628
    19  C   -0.548662
    20  H    0.201856
    21  H    0.200731
    22  H    0.201057
    23  N   -0.077802
    24  O   -0.559896
    25  C    0.270477
    26  C   -0.548963
    27  H    0.187841
    28  H    0.190518
    29  H    0.187509
    30  H    0.470884
    31  H    0.472148
    32  C   -0.402973
    33  H    0.189563
    34  H    0.195195
    35  C    0.231143
    36  C   -0.246008
    37  H    0.148642
    38  C   -0.555163
    39  H    0.181421
    40  H    0.180347
    41  H    0.169148
    42  C    0.139873
    43  C   -0.200384
    44  C   -0.196868
    45  C   -0.158663
    46  H    0.158924
    47  C   -0.156310
    48  H    0.153539
    49  C   -0.151960
    50  H    0.152593
    51  H    0.152680
    52  H    0.152125
 Sum of Mulliken charges =  -0.00000

 Dipole moment (field-independent basis, Debye):
    X=              0.1656    Y=              0.4160    Z=              0.7605  Tot=              0.8826
 Quadrupole moment (field-independent basis, Debye-Ang):
   XX=           -147.4828   YY=           -160.3808   ZZ=           -164.2450
   XY=            -22.8633   XZ=              3.2264   YZ=             10.3301

 Normal termination of Gaussian 16 at Thu Mar  2 08:27:11 2023.
