 Gaussian 16, Revision C.01,
 Gaussian 16:  ES64L-G16RevC.01  3-Jul-2019

 -----------------------------------------------------------
 # B3LYP/genecp em=GD3BJ int=fine scrf=(smd,solvent=acetone)
 -----------------------------------------------------------

 --------
 Template
 --------
 Symbolic Z-matrix:
 Charge =  0 Multiplicity = 1

                         Standard orientation:
 ---------------------------------------------------------------------
 Center     Atomic      Atomic             Coordinates (Angstroms)
 Number     Number       Type             X           Y           Z
 ---------------------------------------------------------------------
      1         27           0        1.361365    0.226792    0.222438
      2          7           0       -0.137323    0.498793    1.331926
      3          8           0       -0.817563   -0.463176    2.016223
      4          6           0       -0.504814    1.732674    1.456021
      5          6           0       -1.640491    2.183140    2.309383
      6          1           0       -2.425961    2.605220    1.685459
      7          1           0       -1.310462    2.951705    3.005149
      8          1           0       -2.041054    1.336000    2.859669
      9          7           0        1.195047    2.078112   -0.059465
     10          8           0        1.970431    2.765480   -0.839953
     11          6           0        0.275393    2.652839    0.664862
     12          6           0        0.026464    4.127315    0.663038
     13          1           0        0.199849    4.549434    1.651711
     14          1           0       -0.999757    4.342111    0.372027
     15          1           0        0.707733    4.593007   -0.046325
     16          7           0        3.014674    0.020954   -0.639742
     17          8           0        3.632305    0.948353   -1.425870
     18          6           0        3.606132   -1.110515   -0.427676
     19          6           0        4.944663   -1.465473   -0.978804
     20          1           0        5.583838   -1.866973   -0.196156
     21          1           0        5.404313   -0.583358   -1.416956
     22          1           0        4.833429   -2.225404   -1.750720
     23          7           0        1.676355   -1.563954    0.742321
     24          8           0        0.853941   -2.274546    1.450581
     25          6           0        2.837227   -2.030161    0.375493
     26          6           0        3.325137   -3.399757    0.725227
     27          1           0        4.214364   -3.345605    1.351602
     28          1           0        3.570036   -3.960664   -0.174366
     29          1           0        2.538756   -3.917510    1.270800
     30          1           0       -0.251689   -1.319791    1.866695
     31          1           0        3.044867    1.797064   -1.325095
     32          6           0        0.395049   -0.276321   -1.488590
     33          1           0        0.868121    0.349975   -2.244211
     34          1           0        0.656146   -1.327291   -1.611460
     35          6           0       -1.037500   -0.061117   -1.402718
     36          6           0       -1.829138   -1.023336   -0.863039
     37          1           0       -1.331449   -1.888178   -0.441990
     38          6           0       -1.561692    1.242968   -1.932694
     39          1           0       -1.770778    1.151068   -2.997999
     40          1           0       -2.474690    1.540176   -1.424699
     41          1           0       -0.813444    2.021241   -1.813265
     42          6           0       -3.268434   -1.019058   -0.686252
     43          6           0       -4.159932   -0.470200   -1.612185
     44          6           0       -3.795988   -1.626041    0.460079
     45          6           0       -5.523388   -0.503877   -1.383665
     46          1           0       -3.787502   -0.056237   -2.534752
     47          6           0       -5.156416   -1.640003    0.693264
     48          1           0       -3.118564   -2.059910    1.180310
     49          6           0       -6.027757   -1.076404   -0.227193
     50          1           0       -6.198432   -0.082935   -2.114892
     51          1           0       -5.542906   -2.098406    1.592126
     52          1           0       -7.092894   -1.094389   -0.048936
 ---------------------------------------------------------------------

 SCF Done:  E(RB3LYP) =  -1365.93153431     A.U. after   21 cycles

 The electronic state is 1-A.
 Alpha  occ. eigenvalues --  -19.16647 -19.16514 -19.12770 -19.12660 -14.40944
 Alpha  occ. eigenvalues --  -14.40940 -14.40609 -14.40383 -10.23644 -10.23467
 Alpha  occ. eigenvalues --  -10.21399 -10.21325 -10.18475 -10.18406 -10.17511
 Alpha  occ. eigenvalues --  -10.17478 -10.17458 -10.17450 -10.17435 -10.17404
 Alpha  occ. eigenvalues --  -10.17367 -10.17317 -10.16943 -10.16822 -10.16795
 Alpha  occ. eigenvalues --  -10.15814  -3.74462  -2.44494  -2.43673  -2.42631
 Alpha  occ. eigenvalues --   -1.09068  -1.08531  -1.06864  -1.06327  -0.90603
 Alpha  occ. eigenvalues --   -0.89392  -0.85737  -0.81918  -0.80935  -0.80579
 Alpha  occ. eigenvalues --   -0.75268  -0.74632  -0.74174  -0.74159  -0.70647
 Alpha  occ. eigenvalues --   -0.70518  -0.68422  -0.66397  -0.62317  -0.60298
 Alpha  occ. eigenvalues --   -0.60009  -0.58746  -0.54907  -0.53535  -0.52905
 Alpha  occ. eigenvalues --   -0.52098  -0.51298  -0.50848  -0.49449  -0.48993
 Alpha  occ. eigenvalues --   -0.47618  -0.47028  -0.46629  -0.46053  -0.45265
 Alpha  occ. eigenvalues --   -0.44477  -0.43379  -0.42792  -0.42279  -0.42243
 Alpha  occ. eigenvalues --   -0.42019  -0.41863  -0.41547  -0.40919  -0.40573
 Alpha  occ. eigenvalues --   -0.39992  -0.39635  -0.39273  -0.38796  -0.38255
 Alpha  occ. eigenvalues --   -0.38104  -0.38036  -0.37599  -0.37380  -0.36737
 Alpha  occ. eigenvalues --   -0.36458  -0.34957  -0.34307  -0.34217  -0.33243
 Alpha  occ. eigenvalues --   -0.32898  -0.30935  -0.30416  -0.28304  -0.28014
 Alpha  occ. eigenvalues --   -0.27743  -0.26413  -0.26227  -0.25131  -0.25028
 Alpha  occ. eigenvalues --   -0.24896  -0.22372  -0.20213  -0.19815  -0.19462
 Alpha virt. eigenvalues --   -0.09159  -0.03751  -0.03367  -0.00429   0.00261
 Alpha virt. eigenvalues --    0.00530   0.02588   0.02820   0.03345   0.05950
 Alpha virt. eigenvalues --    0.06722   0.06814   0.07833   0.11030   0.12228

 Mulliken charges:
               1
     1  Co   0.323172
     2  N   -0.171200
     3  O   -0.566766
     4  C    0.325662
     5  C   -0.548160
     6  H    0.203849
     7  H    0.198858
     8  H    0.200452
     9  N   -0.078217
    10  O   -0.559900
    11  C    0.271317
    12  C   -0.548947
    13  H    0.188376
    14  H    0.187095
    15  H    0.190503
    16  N   -0.159989
    17  O   -0.573072
    18  C    0.324447
    19  C   -0.545812
    20  H    0.199003
    21  H    0.200485
    22  H    0.205165
    23  N   -0.078560
    24  O   -0.556252
    25  C    0.270387
    26  C   -0.547989
    27  H    0.189374
    28  H    0.187246
    29  H    0.190434
    30  H    0.471881
    31  H    0.470965
    32  C   -0.402641
    33  H    0.189400
    34  H    0.195747
    35  C    0.230699
    36  C   -0.245138
    37  H    0.148281
    38  C   -0.554989
    39  H    0.180063
    40  H    0.168833
    41  H    0.181573
    42  C    0.138102
    43  C   -0.200071
    44  C   -0.196753
    45  C   -0.158686
    46  H    0.158864
    47  C   -0.156337
    48  H    0.153847
    49  C   -0.151951
    50  H    0.152605
    51  H    0.152651
    52  H    0.152096
 Sum of Mulliken charges =  -0.00000

 Dipole moment (field-independent basis, Debye):
    X=              0.1737    Y=              0.4237    Z=              0.7399  Tot=              0.8701
 Quadrupole moment (field-independent basis, Debye-Ang):
   XX=           -146.2592   YY=           -161.8669   ZZ=           -163.9839
   XY=            -22.5652   XZ=              2.6434   YZ=             10.6366

 Normal termination of Gaussian 16 at Thu Mar  2 08:25:43 2023.
