 Gaussian 16, Revision C.01,
 Gaussian 16:  ES64L-G16RevC.01  3-Jul-2019

 -----------------------------------------------------------
 # B3LYP/genecp em=GD3BJ int=fine scrf=(smd,solvent=acetone)
 -----------------------------------------------------------

 --------
 Template
 --------
 Symbolic Z-matrix:
 Charge =  0 Multiplicity = 1

                         Standard orientation:
 ---------------------------------------------------------------------
 Center     Atomic      Atomic             Coordinates (Angstroms)
 Number     Number       Type             X           Y           Z
 ---------------------------------------------------------------------
      1         27           0        1.366325    0.201780    0.202503
      2          7           0        2.987972   -0.272875   -0.612792
      3          8           0        3.756141    0.527634   -1.405379
      4          6           0        3.401071   -1.471011   -0.350034
      5          6           0        4.686134   -2.036073   -0.851018
      6          1           0        4.483950   -2.792687   -1.607616
      7          1           0        5.237309   -2.505311   -0.039695
      8          1           0        5.283393   -1.244549   -1.296190
      9          7           0        1.398089   -1.597347    0.778008
     10          8           0        0.461822   -2.157019    1.479628
     11          6           0        2.485080   -2.241194    0.456107
     12          6           0        2.755320   -3.656623    0.856064
     13          1           0        2.937051   -4.274808   -0.020683
     14          1           0        1.887406   -4.035675    1.391904
     15          1           0        3.626602   -3.715208    1.506814
     16          7           0       -0.093157    0.731992    1.269530
     17          8           0       -0.915294   -0.093265    1.976191
     18          6           0       -0.275947    2.010439    1.344509
     19          6           0       -1.340742    2.654578    2.164761
     20          1           0       -0.893963    3.247224    2.961536
     21          1           0       -1.977185    1.888669    2.599907
     22          1           0       -1.939103    3.318426    1.545282
     23          7           0        1.482062    2.048653   -0.143367
     24          8           0        2.363553    2.586607   -0.928548
     25          6           0        0.643438    2.777556    0.539337
     26          6           0        0.614624    4.271723    0.483591
     27          1           0       -0.337098    4.623133    0.088817
     28          1           0        1.417450    4.609526   -0.168769
     29          1           0        0.753956    4.697568    1.475514
     30          1           0        3.295551    1.455105   -1.350534
     31          1           0       -0.490787   -1.030572    1.851114
     32          6           0        0.365982   -0.213493   -1.510902
     33          1           0        0.840220    0.434503   -2.247244
     34          1           0        0.600367   -1.263283   -1.686174
     35          6           0       -1.057888    0.029364   -1.378826
     36          6           0       -1.857271   -0.945690   -0.871607
     37          1           0       -1.363353   -1.837327   -0.505325
     38          6           0       -1.561792    1.373564   -1.820692
     39          1           0       -0.780728    2.119152   -1.700630
     40          1           0       -1.825917    1.341773   -2.877185
     41          1           0       -2.436672    1.674369   -1.251316
     42          6           0       -3.291004   -0.941293   -0.666524
     43          6           0       -4.197284   -0.280994   -1.501911
     44          6           0       -3.803201   -1.673705    0.412543
     45          6           0       -5.555281   -0.325705   -1.245349
     46          1           0       -3.843534    0.231096   -2.381055
     47          6           0       -5.157679   -1.700620    0.675222
     48          1           0       -3.117417   -2.201969    1.057993
     49          6           0       -6.041778   -1.022409   -0.151035
     50          1           0       -6.240849    0.184340   -1.906746
     51          1           0       -5.529972   -2.258133    1.522613
     52          1           0       -7.102692   -1.048525    0.049889
 ---------------------------------------------------------------------

 SCF Done:  E(RB3LYP) =  -1365.93240124     A.U. after   21 cycles

 The electronic state is 1-A.
 Alpha  occ. eigenvalues --  -19.16633 -19.16421 -19.12747 -19.12646 -14.40940
 Alpha  occ. eigenvalues --  -14.40939 -14.40605 -14.40397 -10.23619 -10.23494
 Alpha  occ. eigenvalues --  -10.21409 -10.21326 -10.18501 -10.18434 -10.17521
 Alpha  occ. eigenvalues --  -10.17490 -10.17457 -10.17450 -10.17445 -10.17406
 Alpha  occ. eigenvalues --  -10.17383 -10.17366 -10.16928 -10.16827 -10.16803
 Alpha  occ. eigenvalues --  -10.15850  -3.74400  -2.44432  -2.43629  -2.42557
 Alpha  occ. eigenvalues --   -1.09049  -1.08503  -1.06860  -1.06318  -0.90590
 Alpha  occ. eigenvalues --   -0.89381  -0.85744  -0.81910  -0.80939  -0.80574
 Alpha  occ. eigenvalues --   -0.75303  -0.74634  -0.74178  -0.74174  -0.70648
 Alpha  occ. eigenvalues --   -0.70519  -0.68461  -0.66383  -0.62304  -0.60294
 Alpha  occ. eigenvalues --   -0.60034  -0.58766  -0.54902  -0.53524  -0.52930
 Alpha  occ. eigenvalues --   -0.52076  -0.51284  -0.50839  -0.49462  -0.48975
 Alpha  occ. eigenvalues --   -0.47606  -0.47032  -0.46624  -0.46067  -0.45286
 Alpha  occ. eigenvalues --   -0.44468  -0.43393  -0.42708  -0.42284  -0.42212
 Alpha  occ. eigenvalues --   -0.42005  -0.41826  -0.41542  -0.40980  -0.40549
 Alpha  occ. eigenvalues --   -0.39990  -0.39622  -0.39315  -0.38808  -0.38208
 Alpha  occ. eigenvalues --   -0.38118  -0.38033  -0.37602  -0.37387  -0.36784
 Alpha  occ. eigenvalues --   -0.36538  -0.34966  -0.34297  -0.34231  -0.33166
 Alpha  occ. eigenvalues --   -0.32896  -0.30904  -0.30484  -0.28258  -0.28008
 Alpha  occ. eigenvalues --   -0.27718  -0.26490  -0.26227  -0.25081  -0.25010
 Alpha  occ. eigenvalues --   -0.24903  -0.22359  -0.20128  -0.19774  -0.19471
 Alpha virt. eigenvalues --   -0.09162  -0.03742  -0.03322  -0.00416   0.00285
 Alpha virt. eigenvalues --    0.00518   0.02581   0.02797   0.03359   0.06057
 Alpha virt. eigenvalues --    0.06704   0.06811   0.07851   0.11045   0.12304

 Mulliken charges:
               1
     1  Co   0.315533
     2  N   -0.159159
     3  O   -0.572963
     4  C    0.323369
     5  C   -0.545404
     6  H    0.205045
     7  H    0.198648
     8  H    0.199941
     9  N   -0.077896
    10  O   -0.555233
    11  C    0.270839
    12  C   -0.548211
    13  H    0.187264
    14  H    0.190591
    15  H    0.189382
    16  N   -0.174953
    17  O   -0.567567
    18  C    0.329396
    19  C   -0.548096
    20  H    0.202212
    21  H    0.201347
    22  H    0.200092
    23  N   -0.076394
    24  O   -0.559302
    25  C    0.268643
    26  C   -0.549240
    27  H    0.188472
    28  H    0.190609
    29  H    0.187048
    30  H    0.470498
    31  H    0.473870
    32  C   -0.403736
    33  H    0.190464
    34  H    0.193283
    35  C    0.233501
    36  C   -0.250800
    37  H    0.152504
    38  C   -0.556314
    39  H    0.180710
    40  H    0.180988
    41  H    0.170267
    42  C    0.147495
    43  C   -0.201666
    44  C   -0.200077
    45  C   -0.158408
    46  H    0.159236
    47  C   -0.155788
    48  H    0.153982
    49  C   -0.151935
    50  H    0.152656
    51  H    0.152906
    52  H    0.152357
 Sum of Mulliken charges =  -0.00000

 Dipole moment (field-independent basis, Debye):
    X=              0.0865    Y=              0.3554    Z=              0.7846  Tot=              0.8657
 Quadrupole moment (field-independent basis, Debye-Ang):
   XX=           -153.0332   YY=           -153.2468   ZZ=           -165.6631
   XY=            -22.9898   XZ=              5.6323   YZ=              9.0107

 Normal termination of Gaussian 16 at Thu Mar  2 08:34:43 2023.
