 Gaussian 16, Revision C.01,
 Gaussian 16:  ES64L-G16RevC.01  3-Jul-2019

 -----------------------------------------------------------
 # B3LYP/genecp em=GD3BJ int=fine scrf=(smd,solvent=acetone)
 -----------------------------------------------------------

 --------
 Template
 --------
 Symbolic Z-matrix:
 Charge =  0 Multiplicity = 1

                         Standard orientation:
 ---------------------------------------------------------------------
 Center     Atomic      Atomic             Coordinates (Angstroms)
 Number     Number       Type             X           Y           Z
 ---------------------------------------------------------------------
      1         27           0        1.376539    0.155514    0.186702
      2          7           0        2.913472   -0.576884   -0.604578
      3          8           0        3.790075    0.075664   -1.419970
      4          6           0        3.145596   -1.813586   -0.301578
      5          6           0        4.331446   -2.579890   -0.779586
      6          1           0        4.013033   -3.350760   -1.479503
      7          1           0        4.831313   -3.065362    0.055401
      8          1           0        5.021389   -1.907849   -1.283101
      9          7           0        1.148153   -1.606329    0.826028
     10          8           0        0.145083   -1.998694    1.547664
     11          6           0        2.128700   -2.412595    0.528438
     12          6           0        2.190945   -3.837139    0.979470
     13          1           0        2.252305   -4.507568    0.124504
     14          1           0        1.289769   -4.059103    1.547540
     15          1           0        3.060497   -4.005177    1.612984
     16          7           0        0.012324    0.929937    1.227973
     17          8           0       -0.920136    0.260276    1.962230
     18          6           0        0.026181    2.223245    1.265978
     19          6           0       -0.919379    3.045724    2.072977
     20          1           0       -1.432018    3.760625    1.433474
     21          1           0       -0.375782    3.603006    2.834257
     22          1           0       -1.647605    2.397122    2.552518
     23          7           0        1.759541    1.953380   -0.226550
     24          8           0        2.704732    2.328943   -1.031635
     25          6           0        1.042034    2.820070    0.432609
     26          6           0        1.233164    4.299577    0.326490
     27          1           0        2.067266    4.493295   -0.345074
     28          1           0        1.449543    4.731501    1.301928
     29          1           0        0.338222    4.776106   -0.069817
     30          1           0        3.465147    1.060093   -1.404735
     31          1           0       -0.641290   -0.732921    1.870327
     32          6           0        0.325656   -0.173497   -1.515446
     33          1           0        0.812795    0.475687   -2.242209
     34          1           0        0.512625   -1.226155   -1.726851
     35          6           0       -1.083843    0.122067   -1.345929
     36          6           0       -1.913009   -0.844298   -0.869845
     37          1           0       -1.445600   -1.767900   -0.551651
     38          6           0       -1.539141    1.504323   -1.717166
     39          1           0       -0.720905    2.208286   -1.591419
     40          1           0       -1.837303    1.529008   -2.764744
     41          1           0       -2.380560    1.818791   -1.106179
     42          6           0       -3.342937   -0.810624   -0.647928
     43          6           0       -4.239512   -0.060364   -1.415399
     44          6           0       -3.865493   -1.616478    0.372948
     45          6           0       -5.595661   -0.091414   -1.147504
     46          1           0       -3.881975    0.514022   -2.253256
     47          6           0       -5.217479   -1.630979    0.647871
     48          1           0       -3.188341   -2.216272    0.963083
     49          6           0       -6.090764   -0.863988   -0.109444
     50          1           0       -6.273600    0.489110   -1.756592
     51          1           0       -5.596764   -2.247743    1.449913
     52          1           0       -7.150210   -0.879908    0.100080
 ---------------------------------------------------------------------

 SCF Done:  E(RB3LYP) =  -1365.93260419     A.U. after   21 cycles

 The electronic state is 1-A.
 Alpha  occ. eigenvalues --  -19.16611 -19.16359 -19.12685 -19.12662 -14.40950
 Alpha  occ. eigenvalues --  -14.40923 -14.40582 -14.40400 -10.23588 -10.23530
 Alpha  occ. eigenvalues --  -10.21382 -10.21332 -10.18531 -10.18442 -10.17536
 Alpha  occ. eigenvalues --  -10.17505 -10.17466 -10.17442 -10.17427 -10.17417
 Alpha  occ. eigenvalues --  -10.17393 -10.17390 -10.16919 -10.16812 -10.16809
 Alpha  occ. eigenvalues --  -10.15863  -3.74362  -2.44389  -2.43604  -2.42511
 Alpha  occ. eigenvalues --   -1.09024  -1.08469  -1.06856  -1.06311  -0.90569
 Alpha  occ. eigenvalues --   -0.89366  -0.85756  -0.81890  -0.80934  -0.80561
 Alpha  occ. eigenvalues --   -0.75328  -0.74632  -0.74193  -0.74175  -0.70637
 Alpha  occ. eigenvalues --   -0.70514  -0.68474  -0.66366  -0.62286  -0.60282
 Alpha  occ. eigenvalues --   -0.60063  -0.58780  -0.54881  -0.53512  -0.52951
 Alpha  occ. eigenvalues --   -0.52057  -0.51260  -0.50828  -0.49463  -0.48957
 Alpha  occ. eigenvalues --   -0.47596  -0.47020  -0.46602  -0.46078  -0.45294
 Alpha  occ. eigenvalues --   -0.44458  -0.43400  -0.42635  -0.42295  -0.42196
 Alpha  occ. eigenvalues --   -0.42006  -0.41816  -0.41514  -0.40992  -0.40542
 Alpha  occ. eigenvalues --   -0.39979  -0.39607  -0.39310  -0.38789  -0.38171
 Alpha  occ. eigenvalues --   -0.38128  -0.38042  -0.37600  -0.37353  -0.36824
 Alpha  occ. eigenvalues --   -0.36556  -0.34940  -0.34285  -0.34230  -0.33130
 Alpha  occ. eigenvalues --   -0.32897  -0.30875  -0.30543  -0.28215  -0.27972
 Alpha  occ. eigenvalues --   -0.27699  -0.26570  -0.26200  -0.25055  -0.24989
 Alpha  occ. eigenvalues --   -0.24922  -0.22332  -0.20073  -0.19698  -0.19536
 Alpha virt. eigenvalues --   -0.09163  -0.03715  -0.03311  -0.00406   0.00294
 Alpha virt. eigenvalues --    0.00486   0.02586   0.02774   0.03378   0.06103
 Alpha virt. eigenvalues --    0.06720   0.06820   0.07880   0.11073   0.12318

 Mulliken charges:
               1
     1  Co   0.313560
     2  N   -0.159785
     3  O   -0.573072
     4  C    0.323830
     5  C   -0.546344
     6  H    0.204256
     7  H    0.199271
     8  H    0.200257
     9  N   -0.077558
    10  O   -0.554828
    11  C    0.270071
    12  C   -0.548013
    13  H    0.187333
    14  H    0.190476
    15  H    0.188845
    16  N   -0.178363
    17  O   -0.568380
    18  C    0.330463
    19  C   -0.547887
    20  H    0.200345
    21  H    0.202101
    22  H    0.201356
    23  N   -0.075650
    24  O   -0.558437
    25  C    0.269315
    26  C   -0.549394
    27  H    0.190596
    28  H    0.187142
    29  H    0.188577
    30  H    0.470221
    31  H    0.475083
    32  C   -0.405927
    33  H    0.191483
    34  H    0.191469
    35  C    0.237373
    36  C   -0.253875
    37  H    0.156007
    38  C   -0.556455
    39  H    0.178890
    40  H    0.181125
    41  H    0.171046
    42  C    0.152318
    43  C   -0.202183
    44  C   -0.204978
    45  C   -0.158207
    46  H    0.159367
    47  C   -0.154888
    48  H    0.155051
    49  C   -0.151670
    50  H    0.152836
    51  H    0.153217
    52  H    0.152616
 Sum of Mulliken charges =  -0.00000

 Dipole moment (field-independent basis, Debye):
    X=              0.0376    Y=              0.3097    Z=              0.7995  Tot=              0.8582
 Quadrupole moment (field-independent basis, Debye-Ang):
   XX=           -159.1869   YY=           -145.1925   ZZ=           -167.3373
   XY=            -20.7934   XZ=              8.1418   YZ=              7.4786

 Normal termination of Gaussian 16 at Thu Mar  2 08:40:15 2023.
