 Gaussian 16, Revision C.01,
 Gaussian 16:  ES64L-G16RevC.01  3-Jul-2019

 -----------------------------------------------------------
 # B3LYP/genecp em=GD3BJ int=fine scrf=(smd,solvent=acetone)
 -----------------------------------------------------------

 --------
 Template
 --------
 Symbolic Z-matrix:
 Charge =  0 Multiplicity = 1

                         Standard orientation:
 ---------------------------------------------------------------------
 Center     Atomic      Atomic             Coordinates (Angstroms)
 Number     Number       Type             X           Y           Z
 ---------------------------------------------------------------------
      1         27           0       -1.400382    0.242237    0.171043
      2          7           0       -1.077704   -1.419879    0.968311
      3          8           0       -0.027068   -1.733126    1.780055
      4          6           0       -1.967737   -2.328410    0.725641
      5          6           0       -1.925173   -3.707577    1.289715
      6          1           0       -1.151830   -3.767337    2.051247
      7          1           0       -1.699896   -4.421357    0.498867
      8          1           0       -2.888214   -3.971513    1.720011
      9          7           0       -2.876809   -0.665619   -0.577881
     10          8           0       -3.731506   -0.119845   -1.384256
     11          6           0       -3.015297   -1.894750   -0.165419
     12          6           0       -4.142540   -2.783955   -0.583344
     13          1           0       -3.762368   -3.702480   -1.025421
     14          1           0       -4.747499   -2.253081   -1.315676
     15          1           0       -4.767951   -3.043742    0.269656
     16          7           0       -1.894470    1.966695   -0.410121
     17          8           0       -2.874290    2.266068   -1.312479
     18          6           0       -1.214615    2.934369    0.115575
     19          6           0       -1.447560    4.375741   -0.186500
     20          1           0       -1.545002    4.944934    0.735011
     21          1           0       -2.349359    4.482456   -0.783828
     22          1           0       -0.603211    4.776228   -0.745364
     23          7           0       -0.101111    1.202678    1.151611
     24          8           0        0.755811    0.658411    1.956359
     25          6           0       -0.183904    2.498059    1.025307
     26          6           0        0.709408    3.453018    1.751260
     27          1           0        1.467569    2.878985    2.280385
     28          1           0        0.144404    4.041332    2.473283
     29          1           0        1.191404    4.133972    1.053143
     30          1           0        0.442233   -0.819946    1.947470
     31          1           0       -3.335177    1.357443   -1.491948
     32          6           0       -0.245586   -0.066516   -1.478742
     33          1           0       -0.874822   -0.687976   -2.113759
     34          1           0       -0.145681    0.939785   -1.883534
     35          6           0        1.033546   -0.675761   -1.172523
     36          6           0        2.104198    0.129827   -0.937693
     37          1           0        1.932737    1.196181   -1.027918
     38          6           0        1.125519   -2.173793   -1.223298
     39          1           0        2.079569   -2.480932   -1.644294
     40          1           0        1.037826   -2.603025   -0.227733
     41          1           0        0.321161   -2.575822   -1.834302
     42          6           0        3.477661   -0.213139   -0.640082
     43          6           0        3.871172   -1.378143    0.026609
     44          6           0        4.476836    0.698361   -1.011100
     45          6           0        5.206718   -1.628839    0.280913
     46          1           0        3.129514   -2.067927    0.389294
     47          6           0        5.809682    0.436972   -0.769316
     48          1           0        4.192887    1.613755   -1.510811
     49          6           0        6.182981   -0.733589   -0.125416
     50          1           0        5.488998   -2.530626    0.804870
     51          1           0        6.562829    1.148383   -1.076249
     52          1           0        7.225417   -0.938518    0.069040
 ---------------------------------------------------------------------

 SCF Done:  E(RB3LYP) =  -1365.93076382     A.U. after   20 cycles

 The electronic state is 1-A.
 Alpha  occ. eigenvalues --  -19.16569 -19.16542 -19.12742 -19.12543 -14.41000
 Alpha  occ. eigenvalues --  -14.40862 -14.40450 -14.40411 -10.23674 -10.23567
 Alpha  occ. eigenvalues --  -10.21276 -10.21236 -10.18628 -10.18394 -10.17596
 Alpha  occ. eigenvalues --  -10.17559 -10.17531 -10.17504 -10.17470 -10.17457
 Alpha  occ. eigenvalues --  -10.17435 -10.17379 -10.17204 -10.16811 -10.16754
 Alpha  occ. eigenvalues --  -10.15564  -3.74352  -2.44349  -2.43606  -2.42516
 Alpha  occ. eigenvalues --   -1.09012  -1.08466  -1.06882  -1.06323  -0.90558
 Alpha  occ. eigenvalues --   -0.89356  -0.85828  -0.81861  -0.80934  -0.80528
 Alpha  occ. eigenvalues --   -0.75342  -0.74638  -0.74251  -0.74175  -0.70623
 Alpha  occ. eigenvalues --   -0.70486  -0.68407  -0.66375  -0.62294  -0.60276
 Alpha  occ. eigenvalues --   -0.60111  -0.58824  -0.54844  -0.53523  -0.53019
 Alpha  occ. eigenvalues --   -0.52059  -0.51261  -0.50822  -0.49404  -0.49013
 Alpha  occ. eigenvalues --   -0.47614  -0.46909  -0.46615  -0.46131  -0.45445
 Alpha  occ. eigenvalues --   -0.44423  -0.43679  -0.42674  -0.42352  -0.42198
 Alpha  occ. eigenvalues --   -0.42062  -0.41896  -0.41456  -0.40885  -0.40543
 Alpha  occ. eigenvalues --   -0.39982  -0.39616  -0.38993  -0.38661  -0.38169
 Alpha  occ. eigenvalues --   -0.38065  -0.38008  -0.37573  -0.37233  -0.36785
 Alpha  occ. eigenvalues --   -0.36350  -0.34829  -0.34362  -0.34257  -0.33351
 Alpha  occ. eigenvalues --   -0.33121  -0.30879  -0.30326  -0.28319  -0.27900
 Alpha  occ. eigenvalues --   -0.27680  -0.26736  -0.26210  -0.25046  -0.25009
 Alpha  occ. eigenvalues --   -0.24950  -0.22285  -0.20095  -0.19736  -0.19496
 Alpha virt. eigenvalues --   -0.09259  -0.03895  -0.03405  -0.00345   0.00275
 Alpha virt. eigenvalues --    0.00477   0.02657   0.02731   0.03240   0.06369
 Alpha virt. eigenvalues --    0.06763   0.06958   0.07745   0.11163   0.12163

 Mulliken charges:
               1
     1  Co   0.334969
     2  N   -0.177988
     3  O   -0.569314
     4  C    0.327865
     5  C   -0.546367
     6  H    0.199877
     7  H    0.204795
     8  H    0.198885
     9  N   -0.069725
    10  O   -0.556785
    11  C    0.265414
    12  C   -0.547546
    13  H    0.186391
    14  H    0.189995
    15  H    0.188822
    16  N   -0.167171
    17  O   -0.573950
    18  C    0.321976
    19  C   -0.547029
    20  H    0.198906
    21  H    0.200063
    22  H    0.204196
    23  N   -0.078629
    24  O   -0.553015
    25  C    0.268641
    26  C   -0.547410
    27  H    0.190611
    28  H    0.188474
    29  H    0.185025
    30  H    0.473577
    31  H    0.471093
    32  C   -0.410420
    33  H    0.187881
    34  H    0.193409
    35  C    0.233665
    36  C   -0.245775
    37  H    0.150713
    38  C   -0.559095
    39  H    0.166356
    40  H    0.193330
    41  H    0.166148
    42  C    0.150455
    43  C   -0.199708
    44  C   -0.204526
    45  C   -0.158005
    46  H    0.161206
    47  C   -0.153669
    48  H    0.153110
    49  C   -0.150695
    50  H    0.153565
    51  H    0.153835
    52  H    0.153578
 Sum of Mulliken charges =  -0.00000

 Dipole moment (field-independent basis, Debye):
    X=              0.2835    Y=             -0.2576    Z=              0.7129  Tot=              0.8093
 Quadrupole moment (field-independent basis, Debye-Ang):
   XX=           -165.7008   YY=           -131.6768   ZZ=           -174.4762
   XY=             12.2850   XZ=            -12.1931   YZ=              0.5817

 Normal termination of Gaussian 16 at Thu Mar  2 09:00:30 2023.
