 Gaussian 16, Revision C.01,
 Gaussian 16:  ES64L-G16RevC.01  3-Jul-2019

 -----------------------------------------------------------
 # B3LYP/genecp em=GD3BJ int=fine scrf=(smd,solvent=acetone)
 -----------------------------------------------------------

 --------
 Template
 --------
 Symbolic Z-matrix:
 Charge =  0 Multiplicity = 1

                         Standard orientation:
 ---------------------------------------------------------------------
 Center     Atomic      Atomic             Coordinates (Angstroms)
 Number     Number       Type             X           Y           Z
 ---------------------------------------------------------------------
      1         27           0        0.855180    0.081697   -0.134789
      2          7           0        2.648670    0.635878   -0.254241
      3          8           0        3.065850    1.895695   -0.571934
      4          6           0        3.535078   -0.309995   -0.170425
      5          6           0        5.002124   -0.088593   -0.320429
      6          1           0        5.505275   -0.274588    0.626801
      7          1           0        5.187715    0.936461   -0.628148
      8          1           0        5.408102   -0.774316   -1.060430
      9          7           0        1.661277   -1.589470    0.091067
     10          8           0        0.960519   -2.630513    0.413640
     11          6           0        2.967960   -1.598630    0.091002
     12          6           0        3.785060   -2.820571    0.365461
     13          1           0        3.110633   -3.649676    0.569843
     14          1           0        4.432323   -2.664136    1.226202
     15          1           0        4.406201   -3.068169   -0.493470
     16          7           0       -0.066615   -0.144055    1.597599
     17          8           0       -0.266093   -1.329179    2.272221
     18          6           0       -0.759071    0.890186    1.956175
     19          6           0       -1.707203    0.906278    3.107025
     20          1           0       -2.672233    1.296002    2.790973
     21          1           0       -1.321233    1.549816    3.896077
     22          1           0       -1.828365   -0.100404    3.497801
     23          7           0        0.283055    1.864285    0.144697
     24          8           0        0.705340    2.839981   -0.593850
     25          6           0       -0.508986    2.062760    1.162746
     26          6           0       -1.071687    3.405467    1.507371
     27          1           0       -0.682433    4.134621    0.799648
     28          1           0       -0.786979    3.697130    2.516472
     29          1           0       -2.158769    3.391993    1.444974
     30          1           0        2.208046    2.449722   -0.681348
     31          1           0        0.175916   -2.028079    1.684168
     32          6           0        0.882082    0.004129   -2.141802
     33          1           0        1.362217    0.790516   -2.714744
     34          1           0        1.254449   -0.985813   -2.395402
     35          6           0       -0.536698    0.139891   -1.969558
     36          6           0       -1.183518   -0.837517   -1.239798
     37          1           0       -0.653947   -1.763226   -1.033690
     38          6           0       -1.196127    1.386635   -2.484008
     39          1           0       -2.091308    1.638568   -1.921442
     40          1           0       -0.503151    2.224544   -2.433043
     41          1           0       -1.463239    1.239694   -3.530404
     42          6           0       -2.600510   -0.887110   -0.889537
     43          6           0       -2.983272   -1.480417    0.317765
     44          6           0       -3.608176   -0.425298   -1.740703
     45          6           0       -4.311610   -1.550560    0.688389
     46          1           0       -2.226310   -1.875388    0.977173
     47          6           0       -4.939025   -0.512245   -1.373719
     48          1           0       -3.356422   -0.041485   -2.715643
     49          6           0       -5.297579   -1.057344   -0.152139
     50          1           0       -4.580195   -1.998591    1.634061
     51          1           0       -5.701852   -0.154316   -2.050013
     52          1           0       -6.336988   -1.113417    0.135528
 ---------------------------------------------------------------------

 SCF Done:  E(RB3LYP) =  -1365.92320138     A.U. after   21 cycles

 The electronic state is 1-A.
 Alpha  occ. eigenvalues --  -19.17373 -19.17210 -19.12459 -19.12149 -14.41576
 Alpha  occ. eigenvalues --  -14.41024 -14.40831 -14.40464 -10.23525 -10.23207
 Alpha  occ. eigenvalues --  -10.21424 -10.21284 -10.21088 -10.19286 -10.19065
 Alpha  occ. eigenvalues --  -10.17849 -10.17788 -10.17709 -10.17672 -10.17535
 Alpha  occ. eigenvalues --  -10.17448 -10.17400 -10.17360 -10.16831 -10.16773
 Alpha  occ. eigenvalues --  -10.16011  -3.75189  -2.45252  -2.44342  -2.43376
 Alpha  occ. eigenvalues --   -1.09361  -1.08616  -1.06868  -1.06249  -0.90602
 Alpha  occ. eigenvalues --   -0.89597  -0.86262  -0.82544  -0.81783  -0.80590
 Alpha  occ. eigenvalues --   -0.75864  -0.74564  -0.74453  -0.74152  -0.70633
 Alpha  occ. eigenvalues --   -0.70451  -0.69305  -0.67130  -0.62322  -0.60653
 Alpha  occ. eigenvalues --   -0.60330  -0.59240  -0.54797  -0.53819  -0.53602
 Alpha  occ. eigenvalues --   -0.52138  -0.51762  -0.50932  -0.50275  -0.48922
 Alpha  occ. eigenvalues --   -0.47459  -0.47093  -0.46816  -0.46661  -0.45543
 Alpha  occ. eigenvalues --   -0.44698  -0.43480  -0.43356  -0.43189  -0.42661
 Alpha  occ. eigenvalues --   -0.42103  -0.41882  -0.41577  -0.41007  -0.40326
 Alpha  occ. eigenvalues --   -0.40310  -0.39632  -0.39211  -0.38726  -0.38565
 Alpha  occ. eigenvalues --   -0.38251  -0.37928  -0.37715  -0.37278  -0.37066
 Alpha  occ. eigenvalues --   -0.36751  -0.35703  -0.35017  -0.34076  -0.33701
 Alpha  occ. eigenvalues --   -0.33536  -0.32588  -0.30256  -0.29073  -0.28303
 Alpha  occ. eigenvalues --   -0.28210  -0.27148  -0.26267  -0.25121  -0.24699
 Alpha  occ. eigenvalues --   -0.23866  -0.22299  -0.21111  -0.20148  -0.19853
 Alpha virt. eigenvalues --   -0.06760  -0.04433  -0.04075  -0.02549   0.00213
 Alpha virt. eigenvalues --    0.00284   0.02447   0.02941   0.03270   0.04994
 Alpha virt. eigenvalues --    0.06522   0.07215   0.07665   0.11146   0.12090

 Mulliken charges:
               1
     1  Co   0.176187
     2  N   -0.168725
     3  O   -0.568071
     4  C    0.346170
     5  C   -0.545041
     6  H    0.201890
     7  H    0.199931
     8  H    0.198044
     9  N   -0.081645
    10  O   -0.547001
    11  C    0.272297
    12  C   -0.546543
    13  H    0.189274
    14  H    0.187528
    15  H    0.188012
    16  N   -0.209375
    17  O   -0.559513
    18  C    0.328759
    19  C   -0.547256
    20  H    0.199369
    21  H    0.201357
    22  H    0.197929
    23  N   -0.093757
    24  O   -0.544866
    25  C    0.278508
    26  C   -0.545908
    27  H    0.190304
    28  H    0.186261
    29  H    0.189508
    30  H    0.473039
    31  H    0.467246
    32  C   -0.347143
    33  H    0.179817
    34  H    0.203681
    35  C    0.150955
    36  C   -0.207111
    37  H    0.223295
    38  C   -0.550496
    39  H    0.177081
    40  H    0.196452
    41  H    0.185552
    42  C    0.136052
    43  C   -0.194291
    44  C   -0.195380
    45  C   -0.160181
    46  H    0.158738
    47  C   -0.157710
    48  H    0.166288
    49  C   -0.147037
    50  H    0.156024
    51  H    0.155798
    52  H    0.155705
 Sum of Mulliken charges =  -0.00000

 Dipole moment (field-independent basis, Debye):
    X=             -0.7900    Y=              0.5048    Z=              0.4256  Tot=              1.0296
 Quadrupole moment (field-independent basis, Debye-Ang):
   XX=           -134.9192   YY=           -177.2724   ZZ=           -154.5918
   XY=            -13.5839   XZ=             -2.6519   YZ=              6.8315

 Normal termination of Gaussian 16 at Thu Mar  2 09:06:10 2023.
