 Gaussian 16, Revision C.01,
 Gaussian 16:  ES64L-G16RevC.01  3-Jul-2019

 -----------------------------------------------------------
 # B3LYP/genecp em=GD3BJ int=fine scrf=(smd,solvent=acetone)
 -----------------------------------------------------------

 --------
 Template
 --------
 Symbolic Z-matrix:
 Charge =  0 Multiplicity = 1

                         Standard orientation:
 ---------------------------------------------------------------------
 Center     Atomic      Atomic             Coordinates (Angstroms)
 Number     Number       Type             X           Y           Z
 ---------------------------------------------------------------------
      1         27           0        1.359423    0.227443    0.231064
      2          7           0        3.012413    0.144306   -0.651691
      3          8           0        3.557618    1.123313   -1.429010
      4          6           0        3.678062   -0.950209   -0.467635
      5          6           0        5.029653   -1.208876   -1.040056
      6          1           0        5.416134   -0.297895   -1.489537
      7          1           0        4.962547   -1.980509   -1.805296
      8          1           0        5.709399   -1.556910   -0.265776
      9          7           0        1.796092   -1.548734    0.714877
     10          8           0        1.031136   -2.322673    1.421298
     11          6           0        2.980770   -1.931381    0.328050
     12          6           0        3.562114   -3.270999    0.649828
     13          1           0        2.820560   -3.845754    1.201066
     14          1           0        4.457308   -3.167835    1.261283
     15          1           0        3.826145   -3.803099   -0.261805
     16          7           0       -0.140423    0.379561    1.360300
     17          8           0       -0.755545   -0.637713    2.026312
     18          6           0       -0.580901    1.585235    1.519531
     19          6           0       -1.734480    1.938363    2.394214
     20          1           0       -1.500624    2.806684    3.004982
     21          1           0       -1.981769    1.091505    3.029266
     22          1           0       -2.600976    2.175054    1.778597
     23          7           0        1.073285    2.068810   -0.008021
     24          8           0        1.793507    2.819723   -0.782768
     25          6           0        0.130400    2.569551    0.741012
     26          6           0       -0.208385    4.025668    0.774332
     27          1           0       -1.261133    4.179016    0.547482
     28          1           0        0.401358    4.540028    0.034124
     29          1           0       -0.000895    4.448182    1.756628
     30          1           0        2.919214    1.931058   -1.303020
     31          1           0       -0.135854   -1.453073    1.860529
     32          6           0        0.405618   -0.300345   -1.481011
     33          1           0        0.885898    0.313234   -2.242416
     34          1           0        0.668117   -1.353286   -1.582254
     35          6           0       -1.028227   -0.084213   -1.417476
     36          6           0       -1.826110   -1.037155   -0.871655
     37          1           0       -1.334277   -1.896640   -0.433389
     38          6           0       -1.546744    1.208886   -1.978935
     39          1           0       -1.736275    1.097111   -3.046035
     40          1           0       -2.470057    1.512268   -1.493777
     41          1           0       -0.803913    1.992364   -1.860579
     42          6           0       -3.267110   -1.025775   -0.705658
     43          6           0       -4.150700   -0.504224   -1.654259
     44          6           0       -3.802617   -1.595298    0.455961
     45          6           0       -5.515910   -0.530320   -1.434780
     46          1           0       -3.770317   -0.118068   -2.585736
     47          6           0       -5.164781   -1.601223    0.679513
     48          1           0       -3.129691   -2.005151    1.194454
     49          6           0       -6.028913   -1.067004   -0.264992
     50          1           0       -6.185398   -0.131679   -2.183408
     51          1           0       -5.558260   -2.030647    1.589571
     52          1           0       -7.095400   -1.079807   -0.094516
 ---------------------------------------------------------------------

 SCF Done:  E(RB3LYP) =  -1365.93107608     A.U. after   21 cycles

 The electronic state is 1-A.
 Alpha  occ. eigenvalues --  -19.16658 -19.16590 -19.12769 -19.12701 -14.40963
 Alpha  occ. eigenvalues --  -14.40948 -14.40615 -14.40369 -10.23666 -10.23466
 Alpha  occ. eigenvalues --  -10.21396 -10.21350 -10.18486 -10.18412 -10.17520
 Alpha  occ. eigenvalues --  -10.17486 -10.17472 -10.17469 -10.17443 -10.17417
 Alpha  occ. eigenvalues --  -10.17370 -10.17309 -10.16959 -10.16824 -10.16805
 Alpha  occ. eigenvalues --  -10.15802  -3.74497  -2.44531  -2.43703  -2.42673
 Alpha  occ. eigenvalues --   -1.09087  -1.08554  -1.06878  -1.06344  -0.90617
 Alpha  occ. eigenvalues --   -0.89408  -0.85748  -0.81930  -0.80946  -0.80594
 Alpha  occ. eigenvalues --   -0.75275  -0.74635  -0.74174  -0.74165  -0.70654
 Alpha  occ. eigenvalues --   -0.70527  -0.68419  -0.66411  -0.62334  -0.60315
 Alpha  occ. eigenvalues --   -0.60020  -0.58753  -0.54919  -0.53548  -0.52917
 Alpha  occ. eigenvalues --   -0.52117  -0.51314  -0.50865  -0.49448  -0.49008
 Alpha  occ. eigenvalues --   -0.47634  -0.47031  -0.46638  -0.46072  -0.45273
 Alpha  occ. eigenvalues --   -0.44493  -0.43388  -0.42823  -0.42300  -0.42276
 Alpha  occ. eigenvalues --   -0.42055  -0.41899  -0.41531  -0.40889  -0.40595
 Alpha  occ. eigenvalues --   -0.40015  -0.39609  -0.39250  -0.38798  -0.38298
 Alpha  occ. eigenvalues --   -0.38105  -0.38050  -0.37606  -0.37367  -0.36740
 Alpha  occ. eigenvalues --   -0.36419  -0.34958  -0.34328  -0.34236  -0.33283
 Alpha  occ. eigenvalues --   -0.32910  -0.30967  -0.30416  -0.28337  -0.28036
 Alpha  occ. eigenvalues --   -0.27763  -0.26432  -0.26228  -0.25165  -0.25044
 Alpha  occ. eigenvalues --   -0.24910  -0.22382  -0.20246  -0.19827  -0.19494
 Alpha virt. eigenvalues --   -0.09189  -0.03776  -0.03409  -0.00437   0.00232
 Alpha virt. eigenvalues --    0.00516   0.02604   0.02829   0.03327   0.05909
 Alpha virt. eigenvalues --    0.06720   0.06785   0.07836   0.11047   0.12253

 Mulliken charges:
               1
     1  Co   0.326000
     2  N   -0.161087
     3  O   -0.573176
     4  C    0.325189
     5  C   -0.545932
     6  H    0.200466
     7  H    0.204948
     8  H    0.199650
     9  N   -0.079223
    10  O   -0.556850
    11  C    0.270063
    12  C   -0.548079
    13  H    0.190504
    14  H    0.189311
    15  H    0.187252
    16  N   -0.169611
    17  O   -0.566193
    18  C    0.322837
    19  C   -0.546332
    20  H    0.196176
    21  H    0.199460
    22  H    0.206001
    23  N   -0.079430
    24  O   -0.559679
    25  C    0.273034
    26  C   -0.549137
    27  H    0.186668
    28  H    0.190381
    29  H    0.189368
    30  H    0.471191
    31  H    0.471580
    32  C   -0.402467
    33  H    0.189224
    34  H    0.197140
    35  C    0.230492
    36  C   -0.244704
    37  H    0.147842
    38  C   -0.554913
    39  H    0.179670
    40  H    0.168327
    41  H    0.181493
    42  C    0.135258
    43  C   -0.199548
    44  C   -0.197305
    45  C   -0.158708
    46  H    0.158823
    47  C   -0.156185
    48  H    0.154592
    49  C   -0.151902
    50  H    0.152707
    51  H    0.152686
    52  H    0.152125
 Sum of Mulliken charges =  -0.00000

 Dipole moment (field-independent basis, Debye):
    X=              0.1875    Y=              0.4347    Z=              0.7295  Tot=              0.8696
 Quadrupole moment (field-independent basis, Debye-Ang):
   XX=           -143.3491   YY=           -165.5179   ZZ=           -163.1556
   XY=            -21.5808   XZ=              1.1219   YZ=             11.0903

 Normal termination of Gaussian 16 at Thu Mar  2 08:20:01 2023.
