 Gaussian 16, Revision C.01,
 Gaussian 16:  ES64L-G16RevC.01  3-Jul-2019

 -----------------------------------------------------------
 # B3LYP/genecp em=GD3BJ int=fine scrf=(smd,solvent=acetone)
 -----------------------------------------------------------

 --------
 Template
 --------
 Symbolic Z-matrix:
 Charge =  0 Multiplicity = 1

                         Standard orientation:
 ---------------------------------------------------------------------
 Center     Atomic      Atomic             Coordinates (Angstroms)
 Number     Number       Type             X           Y           Z
 ---------------------------------------------------------------------
      1         27           0        1.384803    0.093916    0.318523
      2          7           0        2.876257    0.845501   -0.549544
      3          8           0        3.002071    2.140027   -0.964343
      4          6           0        3.865642    0.033007   -0.740113
      5          6           0        5.155951    0.428310   -1.372461
      6          1           0        5.994497    0.087202   -0.770102
      7          1           0        5.193421    1.509133   -1.481691
      8          1           0        5.236423   -0.029384   -2.357212
      9          7           0        2.409117   -1.492584    0.181249
     10          8           0        2.010525   -2.653333    0.599843
     11          6           0        3.604182   -1.318804   -0.309646
     12          6           0        4.610358   -2.416894   -0.442666
     13          1           0        5.488591   -2.213912    0.168503
     14          1           0        4.926844   -2.522614   -1.478275
     15          1           0        4.153111   -3.346085   -0.108636
     16          7           0        0.045274   -0.619626    1.423006
     17          8           0       -0.162146   -1.941180    1.691774
     18          6           0       -0.707298    0.260271    2.000102
     19          6           0       -1.793177   -0.074155    2.964155
     20          1           0       -1.727535    0.558954    3.845622
     21          1           0       -1.716159   -1.119317    3.252793
     22          1           0       -2.761611    0.092859    2.494969
     23          7           0        0.530672    1.715501    0.718563
     24          8           0        0.896427    2.864452    0.241413
     25          6           0       -0.425883    1.615958    1.598469
     26          6           0       -1.190387    2.789175    2.121466
     27          1           0       -1.016272    2.921778    3.188454
     28          1           0       -2.257180    2.649960    1.959785
     29          1           0       -0.857136    3.681464    1.595591
     30          1           0        2.171505    2.611760   -0.564883
     31          1           0        0.658433   -2.415043    1.273558
     32          6           0        0.390415   -0.255931   -1.422181
     33          1           0        0.958113    0.326523   -2.147280
     34          1           0        0.537624   -1.327853   -1.552890
     35          6           0       -1.015248    0.111124   -1.413025
     36          6           0       -1.939172   -0.803272   -1.020560
     37          1           0       -1.563268   -1.745338   -0.640566
     38          6           0       -1.361199    1.498525   -1.870002
     39          1           0       -1.443852    1.522922   -2.956142
     40          1           0       -2.300137    1.835586   -1.440346
     41          1           0       -0.576346    2.194207   -1.587095
     42          6           0       -3.382941   -0.684788   -0.965666
     43          6           0       -4.142343    0.056717   -1.875418
     44          6           0       -4.061382   -1.386944    0.039286
     45          6           0       -5.518388    0.125351   -1.754806
     46          1           0       -3.659676    0.544103   -2.706036
     47          6           0       -5.432899   -1.301638    0.166995
     48          1           0       -3.490790   -1.987596    0.732866
     49          6           0       -6.169019   -0.538147   -0.727257
     50          1           0       -6.088738    0.698778   -2.471247
     51          1           0       -5.934163   -1.837713    0.959957
     52          1           0       -7.242916   -0.474560   -0.632263
 ---------------------------------------------------------------------

 SCF Done:  E(RB3LYP) =  -1365.93138944     A.U. after   20 cycles

 The electronic state is 1-A.
 Alpha  occ. eigenvalues --  -19.16726 -19.16631 -19.12825 -19.12749 -14.41032
 Alpha  occ. eigenvalues --  -14.40990 -14.40522 -14.40464 -10.23707 -10.23481
 Alpha  occ. eigenvalues --  -10.21418 -10.21365 -10.18617 -10.18410 -10.17597
 Alpha  occ. eigenvalues --  -10.17576 -10.17520 -10.17473 -10.17470 -10.17465
 Alpha  occ. eigenvalues --  -10.17454 -10.17369 -10.16942 -10.16822 -10.16818
 Alpha  occ. eigenvalues --  -10.15477  -3.74624  -2.44646  -2.43800  -2.42832
 Alpha  occ. eigenvalues --   -1.09091  -1.08546  -1.06963  -1.06409  -0.90654
 Alpha  occ. eigenvalues --   -0.89461  -0.85826  -0.81961  -0.80906  -0.80646
 Alpha  occ. eigenvalues --   -0.75343  -0.74658  -0.74260  -0.74204  -0.70667
 Alpha  occ. eigenvalues --   -0.70548  -0.68309  -0.66408  -0.62356  -0.60355
 Alpha  occ. eigenvalues --   -0.60116  -0.58812  -0.54919  -0.53583  -0.52968
 Alpha  occ. eigenvalues --   -0.52130  -0.51364  -0.50930  -0.49418  -0.49037
 Alpha  occ. eigenvalues --   -0.47708  -0.47012  -0.46627  -0.46188  -0.45402
 Alpha  occ. eigenvalues --   -0.44555  -0.43329  -0.42777  -0.42460  -0.42285
 Alpha  occ. eigenvalues --   -0.42094  -0.41948  -0.41504  -0.40899  -0.40613
 Alpha  occ. eigenvalues --   -0.40017  -0.39591  -0.38973  -0.38855  -0.38480
 Alpha  occ. eigenvalues --   -0.38081  -0.38014  -0.37625  -0.37360  -0.36792
 Alpha  occ. eigenvalues --   -0.36124  -0.34861  -0.34397  -0.34332  -0.33247
 Alpha  occ. eigenvalues --   -0.32888  -0.31006  -0.30650  -0.28399  -0.28010
 Alpha  occ. eigenvalues --   -0.27785  -0.26656  -0.26391  -0.25273  -0.25106
 Alpha  occ. eigenvalues --   -0.25005  -0.22415  -0.20011  -0.19902  -0.19777
 Alpha virt. eigenvalues --   -0.09332  -0.03849  -0.03465  -0.00501   0.00028
 Alpha virt. eigenvalues --    0.00374   0.02611   0.02940   0.03220   0.06148
 Alpha virt. eigenvalues --    0.06720   0.06786   0.07821   0.11067   0.12472

 Mulliken charges:
               1
     1  Co   0.336676
     2  N   -0.170663
     3  O   -0.572791
     4  C    0.327209
     5  C   -0.546080
     6  H    0.199281
     7  H    0.200468
     8  H    0.205417
     9  N   -0.076896
    10  O   -0.557238
    11  C    0.269485
    12  C   -0.547753
    13  H    0.189428
    14  H    0.187247
    15  H    0.190389
    16  N   -0.167957
    17  O   -0.570965
    18  C    0.329095
    19  C   -0.547694
    20  H    0.196560
    21  H    0.198148
    22  H    0.203781
    23  N   -0.084624
    24  O   -0.552494
    25  C    0.277110
    26  C   -0.548838
    27  H    0.189343
    28  H    0.188326
    29  H    0.190471
    30  H    0.471048
    31  H    0.470535
    32  C   -0.407035
    33  H    0.195329
    34  H    0.197972
    35  C    0.233398
    36  C   -0.266607
    37  H    0.154484
    38  C   -0.561883
    39  H    0.174703
    40  H    0.165936
    41  H    0.183802
    42  C    0.146404
    43  C   -0.201272
    44  C   -0.203639
    45  C   -0.157935
    46  H    0.161241
    47  C   -0.156465
    48  H    0.156748
    49  C   -0.151574
    50  H    0.153559
    51  H    0.153866
    52  H    0.152942
 Sum of Mulliken charges =  -0.00000

 Dipole moment (field-independent basis, Debye):
    X=              0.2836    Y=              0.4032    Z=              0.8884  Tot=              1.0160
 Quadrupole moment (field-independent basis, Debye-Ang):
   XX=           -132.9845   YY=           -183.6131   ZZ=           -154.2293
   XY=             -8.5779   XZ=             -9.6451   YZ=              4.8355

 Normal termination of Gaussian 16 at Thu Mar  2 08:42:57 2023.
