 Gaussian 16, Revision C.01,
 Gaussian 16:  ES64L-G16RevC.01  3-Jul-2019

 -----------------------------------------------------------
 # B3LYP/genecp em=GD3BJ int=fine scrf=(smd,solvent=acetone)
 -----------------------------------------------------------

 --------
 Template
 --------
 Symbolic Z-matrix:
 Charge =  0 Multiplicity = 1

                         Standard orientation:
 ---------------------------------------------------------------------
 Center     Atomic      Atomic             Coordinates (Angstroms)
 Number     Number       Type             X           Y           Z
 ---------------------------------------------------------------------
      1         27           0       -1.351152    0.273949    0.256027
      2          7           0       -2.419451   -1.250710    0.476641
      3          8           0       -2.079141   -2.384491    1.153465
      4          6           0       -3.592980   -1.175980   -0.065901
      5          6           0       -4.617316   -2.255738    0.013904
      6          1           0       -5.573689   -1.848160    0.332753
      7          1           0       -4.288709   -3.019776    0.713681
      8          1           0       -4.751644   -2.708274   -0.967323
      9          7           0       -2.799033    0.859214   -0.787924
     10          8           0       -2.834263    2.003002   -1.390566
     11          6           0       -3.822832    0.051514   -0.786668
     12          6           0       -5.111612    0.353399   -1.482207
     13          1           0       -5.928789    0.433098   -0.766729
     14          1           0       -5.353519   -0.430249   -2.197112
     15          1           0       -5.006579    1.300846   -2.006769
     16          7           0       -0.394377    1.893442    0.238208
     17          8           0       -0.611410    2.948035   -0.603352
     18          6           0        0.549007    1.984504    1.119174
     19          6           0        1.416780    3.183939    1.289689
     20          1           0        1.453644    3.480826    2.335203
     21          1           0        1.032816    4.002417    0.686236
     22          1           0        2.430251    2.949547    0.967285
     23          7           0       -0.063313   -0.187292    1.569666
     24          8           0       -0.008988   -1.336997    2.170727
     25          6           0        0.724890    0.793181    1.911540
     26          6           0        1.746051    0.692683    2.999057
     27          1           0        1.730746   -0.320154    3.396221
     28          1           0        1.522537    1.391713    3.803950
     29          1           0        2.739149    0.914809    2.614254
     30          1           0       -1.198200   -2.133206    1.637097
     31          1           0       -1.511476    2.723818   -1.054822
     32          6           0       -0.450518   -0.412799   -1.421086
     33          1           0       -1.132508   -1.169436   -1.806682
     34          1           0       -0.427031    0.466468   -2.063829
     35          6           0        0.867294   -0.935559   -1.114958
     36          6           0        1.944478   -0.115476   -1.246756
     37          1           0        1.748171    0.880497   -1.626770
     38          6           0        0.963641   -2.384091   -0.737578
     39          1           0        1.888057   -2.820855   -1.105801
     40          1           0        0.931050   -2.499217    0.345118
     41          1           0        0.120633   -2.934595   -1.147001
     42          6           0        3.346562   -0.382422   -1.008856
     43          6           0        3.819706   -1.309983   -0.074268
     44          6           0        4.291528    0.365910   -1.725740
     45          6           0        5.177081   -1.498376    0.108635
     46          1           0        3.125073   -1.852326    0.543913
     47          6           0        5.645181    0.164008   -1.550905
     48          1           0        3.945814    1.100882   -2.438711
     49          6           0        6.096022   -0.775366   -0.634992
     50          1           0        5.521495   -2.214389    0.840880
     51          1           0        6.354565    0.742812   -2.124550
     52          1           0        7.155087   -0.932781   -0.494067
 ---------------------------------------------------------------------

 SCF Done:  E(RB3LYP) =  -1365.93365941     A.U. after   20 cycles

 The electronic state is 1-A.
 Alpha  occ. eigenvalues --  -19.16730 -19.16614 -19.12821 -19.12803 -14.41192
 Alpha  occ. eigenvalues --  -14.40860 -14.40547 -14.40490 -10.23673 -10.23570
 Alpha  occ. eigenvalues --  -10.21341 -10.21250 -10.18694 -10.18545 -10.17630
 Alpha  occ. eigenvalues --  -10.17601 -10.17567 -10.17531 -10.17494 -10.17474
 Alpha  occ. eigenvalues --  -10.17464 -10.17422 -10.17120 -10.16835 -10.16758
 Alpha  occ. eigenvalues --  -10.15411  -3.74538  -2.44578  -2.43753  -2.42701
 Alpha  occ. eigenvalues --   -1.09102  -1.08553  -1.07024  -1.06425  -0.90645
 Alpha  occ. eigenvalues --   -0.89465  -0.85861  -0.81930  -0.80999  -0.80632
 Alpha  occ. eigenvalues --   -0.75390  -0.74670  -0.74284  -0.74212  -0.70657
 Alpha  occ. eigenvalues --   -0.70523  -0.68370  -0.66430  -0.62339  -0.60357
 Alpha  occ. eigenvalues --   -0.60149  -0.58865  -0.54930  -0.53630  -0.53007
 Alpha  occ. eigenvalues --   -0.52136  -0.51392  -0.50918  -0.49436  -0.49077
 Alpha  occ. eigenvalues --   -0.47732  -0.46923  -0.46687  -0.46032  -0.45658
 Alpha  occ. eigenvalues --   -0.44567  -0.43386  -0.42769  -0.42478  -0.42276
 Alpha  occ. eigenvalues --   -0.42097  -0.41957  -0.41408  -0.40871  -0.40610
 Alpha  occ. eigenvalues --   -0.40157  -0.39534  -0.38970  -0.38870  -0.38167
 Alpha  occ. eigenvalues --   -0.38058  -0.37886  -0.37592  -0.37360  -0.36809
 Alpha  occ. eigenvalues --   -0.36419  -0.34762  -0.34627  -0.34303  -0.33431
 Alpha  occ. eigenvalues --   -0.33132  -0.30998  -0.30631  -0.28306  -0.27936
 Alpha  occ. eigenvalues --   -0.27732  -0.26902  -0.26419  -0.25223  -0.25094
 Alpha  occ. eigenvalues --   -0.25052  -0.22466  -0.20348  -0.19795  -0.19388
 Alpha virt. eigenvalues --   -0.09385  -0.03878  -0.03347  -0.00490   0.00190
 Alpha virt. eigenvalues --    0.00383   0.02631   0.02815   0.03249   0.06532
 Alpha virt. eigenvalues --    0.06649   0.06981   0.07831   0.11146   0.12467

 Mulliken charges:
               1
     1  Co   0.328210
     2  N   -0.169089
     3  O   -0.572204
     4  C    0.325108
     5  C   -0.546686
     6  H    0.199301
     7  H    0.200297
     8  H    0.205059
     9  N   -0.063885
    10  O   -0.554975
    11  C    0.268314
    12  C   -0.547122
    13  H    0.189441
    14  H    0.186930
    15  H    0.190420
    16  N   -0.171002
    17  O   -0.571473
    18  C    0.329646
    19  C   -0.547641
    20  H    0.198596
    21  H    0.199599
    22  H    0.205142
    23  N   -0.089755
    24  O   -0.550016
    25  C    0.273169
    26  C   -0.549687
    27  H    0.189713
    28  H    0.188201
    29  H    0.187068
    30  H    0.472099
    31  H    0.469663
    32  C   -0.397949
    33  H    0.186033
    34  H    0.189770
    35  C    0.237917
    36  C   -0.268780
    37  H    0.152942
    38  C   -0.556549
    39  H    0.164055
    40  H    0.193155
    41  H    0.165299
    42  C    0.153803
    43  C   -0.203775
    44  C   -0.205538
    45  C   -0.158204
    46  H    0.164623
    47  C   -0.153752
    48  H    0.153824
    49  C   -0.151245
    50  H    0.154061
    51  H    0.154184
    52  H    0.153684
 Sum of Mulliken charges =  -0.00000

 Dipole moment (field-independent basis, Debye):
    X=             -0.1753    Y=              0.1763    Z=              0.8906  Tot=              0.9246
 Quadrupole moment (field-independent basis, Debye-Ang):
   XX=           -134.4199   YY=           -170.2329   ZZ=           -166.3165
   XY=             14.7673   XZ=              3.9184   YZ=             11.8268

 Normal termination of Gaussian 16 at Thu Mar  2 08:02:05 2023.
