 Gaussian 16, Revision C.01,
 Gaussian 16:  ES64L-G16RevC.01  3-Jul-2019

 -----------------------------------------------------------
 # B3LYP/genecp em=GD3BJ int=fine scrf=(smd,solvent=acetone)
 -----------------------------------------------------------

 --------
 Template
 --------
 Symbolic Z-matrix:
 Charge =  0 Multiplicity = 1

                         Standard orientation:
 ---------------------------------------------------------------------
 Center     Atomic      Atomic             Coordinates (Angstroms)
 Number     Number       Type             X           Y           Z
 ---------------------------------------------------------------------
      1         27           0        1.364728    0.211513    0.208822
      2          7           0       -0.111377    0.677742    1.283670
      3          8           0       -0.899124   -0.183588    1.986433
      4          6           0       -0.344565    1.947395    1.366558
      5          6           0       -1.433397    2.543730    2.191333
      6          1           0       -1.010092    3.152743    2.988546
      7          1           0       -2.035998    1.750496    2.625673
      8          1           0       -2.061031    3.183096    1.575071
      9          7           0        1.408682    2.063905   -0.122895
     10          8           0        2.267859    2.641295   -0.904925
     11          6           0        0.543162    2.754974    0.565527
     12          6           0        0.455650    4.247151    0.519677
     13          1           0       -0.509829    4.563091    0.128370
     14          1           0        1.243563    4.620691   -0.131379
     15          1           0        0.579482    4.671700    1.514209
     16          7           0        3.000011   -0.195614   -0.615125
     17          8           0        3.734184    0.640248   -1.403331
     18          6           0        3.457409   -1.380532   -0.366346
     19          6           0        4.759369   -1.894670   -0.878418
     20          1           0        4.581189   -2.669412   -1.622289
     21          1           0        5.341136   -2.328760   -0.068834
     22          1           0        5.315730   -1.083317   -1.340174
     23          7           0        1.466394   -1.589680    0.770174
     24          8           0        0.554819   -2.188931    1.471770
     25          6           0        2.574174   -2.190831    0.437012
     26          6           0        2.897659   -3.599064    0.822328
     27          1           0        2.051224   -4.010852    1.368244
     28          1           0        3.780724   -3.633128    1.458637
     29          1           0        3.085810   -4.204745   -0.061824
     30          1           0       -0.438252   -1.102757    1.854509
     31          1           0        3.238938    1.549517   -1.338695
     32          6           0        0.377274   -0.228971   -1.505683
     33          1           0        0.849401    0.415737   -2.246290
     34          1           0        0.622284   -1.278361   -1.668524
     35          6           0       -1.049895    0.002129   -1.385716
     36          6           0       -1.843936   -0.971463   -0.868269
     37          1           0       -1.346370   -1.854211   -0.485755
     38          6           0       -1.564019    1.334301   -1.851705
     39          1           0       -1.815220    1.284721   -2.910661
     40          1           0       -2.449356    1.632702   -1.297412
     41          1           0       -0.793310    2.090767   -1.733424
     42          6           0       -3.279180   -0.969557   -0.670193
     43          6           0       -3.793603   -1.665957    0.431059
     44          6           0       -4.183169   -0.342795   -1.533138
     45          6           0       -5.149551   -1.689869    0.686849
     46          1           0       -3.108811   -2.166313    1.099283
     47          6           0       -5.542510   -0.385339   -1.283253
     48          1           0       -3.825649    0.140597   -2.427028
     49          6           0       -6.031946   -1.045760   -0.167958
     50          1           0       -5.524203   -2.218614    1.551452
     51          1           0       -6.226566    0.097876   -1.966000
     52          1           0       -7.093871   -1.070005    0.027788
 ---------------------------------------------------------------------

 SCF Done:  E(RB3LYP) =  -1365.93223151     A.U. after   21 cycles

 The electronic state is 1-A.
 Alpha  occ. eigenvalues --  -19.16625 -19.16445 -19.12756 -19.12650 -14.40942
 Alpha  occ. eigenvalues --  -14.40939 -14.40612 -14.40396 -10.23622 -10.23486
 Alpha  occ. eigenvalues --  -10.21406 -10.21328 -10.18488 -10.18428 -10.17515
 Alpha  occ. eigenvalues --  -10.17484 -10.17452 -10.17448 -10.17443 -10.17402
 Alpha  occ. eigenvalues --  -10.17381 -10.17353 -10.16931 -10.16824 -10.16804
 Alpha  occ. eigenvalues --  -10.15842  -3.74417  -2.44450  -2.43641  -2.42578
 Alpha  occ. eigenvalues --   -1.09053  -1.08510  -1.06861  -1.06319  -0.90594
 Alpha  occ. eigenvalues --   -0.89383  -0.85740  -0.81914  -0.80938  -0.80575
 Alpha  occ. eigenvalues --   -0.75290  -0.74635  -0.74178  -0.74169  -0.70649
 Alpha  occ. eigenvalues --   -0.70520  -0.68451  -0.66388  -0.62308  -0.60293
 Alpha  occ. eigenvalues --   -0.60023  -0.58759  -0.54906  -0.53526  -0.52921
 Alpha  occ. eigenvalues --   -0.52082  -0.51288  -0.50841  -0.49461  -0.48981
 Alpha  occ. eigenvalues --   -0.47609  -0.47035  -0.46626  -0.46059  -0.45277
 Alpha  occ. eigenvalues --   -0.44469  -0.43388  -0.42734  -0.42280  -0.42212
 Alpha  occ. eigenvalues --   -0.42005  -0.41829  -0.41551  -0.40967  -0.40547
 Alpha  occ. eigenvalues --   -0.40008  -0.39627  -0.39307  -0.38810  -0.38222
 Alpha  occ. eigenvalues --   -0.38117  -0.38031  -0.37602  -0.37390  -0.36768
 Alpha  occ. eigenvalues --   -0.36523  -0.34966  -0.34300  -0.34227  -0.33186
 Alpha  occ. eigenvalues --   -0.32895  -0.30904  -0.30463  -0.28265  -0.28014
 Alpha  occ. eigenvalues --   -0.27724  -0.26456  -0.26234  -0.25093  -0.25018
 Alpha  occ. eigenvalues --   -0.24897  -0.22368  -0.20155  -0.19786  -0.19463
 Alpha virt. eigenvalues --   -0.09163  -0.03737  -0.03332  -0.00423   0.00285
 Alpha virt. eigenvalues --    0.00527   0.02579   0.02801   0.03357   0.06028
 Alpha virt. eigenvalues --    0.06710   0.06815   0.07841   0.11036   0.12280

 Mulliken charges:
               1
     1  Co   0.316731
     2  N   -0.173834
     3  O   -0.567399
     4  C    0.328499
     5  C   -0.548236
     6  H    0.202078
     7  H    0.201369
     8  H    0.200230
     9  N   -0.076759
    10  O   -0.559560
    11  C    0.268946
    12  C   -0.549105
    13  H    0.188420
    14  H    0.190556
    15  H    0.187088
    16  N   -0.159147
    17  O   -0.573144
    18  C    0.323610
    19  C   -0.545649
    20  H    0.204717
    21  H    0.199182
    22  H    0.200144
    23  N   -0.077859
    24  O   -0.555363
    25  C    0.270970
    26  C   -0.548141
    27  H    0.190659
    28  H    0.189182
    29  H    0.187383
    30  H    0.473353
    31  H    0.470676
    32  C   -0.403144
    33  H    0.190207
    34  H    0.193801
    35  C    0.232508
    36  C   -0.249355
    37  H    0.151267
    38  C   -0.555898
    39  H    0.180824
    40  H    0.169901
    41  H    0.181025
    42  C    0.144962
    43  C   -0.198347
    44  C   -0.201216
    45  C   -0.156100
    46  H    0.153638
    47  C   -0.158507
    48  H    0.159111
    49  C   -0.151929
    50  H    0.152798
    51  H    0.152604
    52  H    0.152254
 Sum of Mulliken charges =  -0.00000

 Dipole moment (field-independent basis, Debye):
    X=              0.0952    Y=              0.3629    Z=              0.7652  Tot=              0.8522
 Quadrupole moment (field-independent basis, Debye-Ang):
   XX=           -151.3836   YY=           -155.4593   ZZ=           -165.2054
   XY=            -23.1819   XZ=              4.9249   YZ=              9.4257

 Normal termination of Gaussian 16 at Thu Mar  2 08:33:16 2023.
