 Gaussian 16, Revision C.01,
 Gaussian 16:  ES64L-G16RevC.01  3-Jul-2019

 -----------------------------------------------------------
 # B3LYP/genecp em=GD3BJ int=fine scrf=(smd,solvent=acetone)
 -----------------------------------------------------------

 --------
 Template
 --------
 Symbolic Z-matrix:
 Charge =  0 Multiplicity = 1

                         Standard orientation:
 ---------------------------------------------------------------------
 Center     Atomic      Atomic             Coordinates (Angstroms)
 Number     Number       Type             X           Y           Z
 ---------------------------------------------------------------------
      1         27           0        1.358286    0.149317    0.329417
      2          7           0        2.718675    1.146639   -0.495148
      3          8           0        2.652105    2.465379   -0.837918
      4          6           0        3.808274    0.492272   -0.738255
      5          6           0        5.022037    1.096208   -1.357253
      6          1           0        5.157634    0.698857   -2.361890
      7          1           0        5.906894    0.853402   -0.773713
      8          1           0        4.902666    2.174839   -1.417341
      9          7           0        2.591261   -1.266439    0.116197
     10          8           0        2.373085   -2.487008    0.493932
     11          6           0        3.743542   -0.902193   -0.374222
     12          6           0        4.893535   -1.839517   -0.561123
     13          1           0        5.218338   -1.844850   -1.599528
     14          1           0        4.573278   -2.839973   -0.277293
     15          1           0        5.736685   -1.547080    0.063079
     16          7           0        0.144355   -0.796708    1.409131
     17          8           0        0.146512   -2.142641    1.640968
     18          6           0       -0.742124   -0.064443    2.003967
     19          6           0       -1.765302   -0.594102    2.949333
     20          1           0       -1.727288   -0.049524    3.890327
     21          1           0       -1.586037   -1.650681    3.130356
     22          1           0       -2.758903   -0.465169    2.523798
     23          7           0        0.257815    1.611110    0.786400
     24          8           0        0.443546    2.818048    0.353382
     25          6           0       -0.680314    1.330125    1.646688
     26          6           0       -1.630442    2.346718    2.193388
     27          1           0       -2.657856    2.071998    1.962553
     28          1           0       -1.404933    3.309656    1.739769
     29          1           0       -1.529308    2.430323    3.274362
     30          1           0        1.755253    2.787930   -0.431746
     31          1           0        1.024977   -2.471747    1.194838
     32          6           0        0.460756   -0.102442   -1.471563
     33          1           0        0.488025    0.905463   -1.884115
     34          1           0        1.130011   -0.775861   -2.005609
     35          6           0       -0.887109   -0.621439   -1.338765
     36          6           0       -1.920438    0.257900   -1.248247
     37          1           0       -1.672995    1.309015   -1.337990
     38          6           0       -1.066843   -2.110751   -1.392169
     39          1           0       -1.044216   -2.545493   -0.394787
     40          1           0       -2.013219   -2.367583   -1.860659
     41          1           0       -0.255894   -2.562131   -1.958170
     42          6           0       -3.336050    0.001945   -1.088056
     43          6           0       -4.242827    0.945810   -1.589970
     44          6           0       -3.853484   -1.108039   -0.411890
     45          6           0       -5.605029    0.765209   -1.462797
     46          1           0       -3.861119    1.820129   -2.097631
     47          6           0       -5.218525   -1.277367   -0.272756
     48          1           0       -3.184273   -1.817827    0.043937
     49          6           0       -6.101024   -0.351971   -0.806833
     50          1           0       -6.285603    1.499169   -1.869497
     51          1           0       -5.597724   -2.137707    0.259600
     52          1           0       -7.166636   -0.492697   -0.702745
 ---------------------------------------------------------------------

 SCF Done:  E(RB3LYP) =  -1365.93324453     A.U. after   21 cycles

 The electronic state is 1-A.
 Alpha  occ. eigenvalues --  -19.16715 -19.16670 -19.12905 -19.12775 -14.41045
 Alpha  occ. eigenvalues --  -14.41036 -14.40623 -14.40411 -10.23697 -10.23539
 Alpha  occ. eigenvalues --  -10.21395 -10.21230 -10.18663 -10.18456 -10.17636
 Alpha  occ. eigenvalues --  -10.17609 -10.17567 -10.17516 -10.17507 -10.17486
 Alpha  occ. eigenvalues --  -10.17451 -10.17391 -10.17000 -10.16830 -10.16756
 Alpha  occ. eigenvalues --  -10.15517  -3.74581  -2.44619  -2.43772  -2.42763
 Alpha  occ. eigenvalues --   -1.09124  -1.08566  -1.07004  -1.06447  -0.90654
 Alpha  occ. eigenvalues --   -0.89452  -0.85861  -0.81954  -0.80964  -0.80624
 Alpha  occ. eigenvalues --   -0.75373  -0.74678  -0.74301  -0.74194  -0.70659
 Alpha  occ. eigenvalues --   -0.70520  -0.68400  -0.66404  -0.62361  -0.60338
 Alpha  occ. eigenvalues --   -0.60154  -0.58841  -0.54944  -0.53588  -0.53055
 Alpha  occ. eigenvalues --   -0.52144  -0.51402  -0.50917  -0.49415  -0.49114
 Alpha  occ. eigenvalues --   -0.47725  -0.47031  -0.46721  -0.46046  -0.45553
 Alpha  occ. eigenvalues --   -0.44546  -0.43405  -0.42748  -0.42398  -0.42292
 Alpha  occ. eigenvalues --   -0.42102  -0.42012  -0.41453  -0.41047  -0.40582
 Alpha  occ. eigenvalues --   -0.40006  -0.39340  -0.39234  -0.38771  -0.38146
 Alpha  occ. eigenvalues --   -0.38115  -0.37999  -0.37634  -0.37360  -0.36784
 Alpha  occ. eigenvalues --   -0.36406  -0.34915  -0.34499  -0.34313  -0.33468
 Alpha  occ. eigenvalues --   -0.33127  -0.31052  -0.30546  -0.28333  -0.28126
 Alpha  occ. eigenvalues --   -0.27726  -0.26768  -0.26381  -0.25208  -0.25109
 Alpha  occ. eigenvalues --   -0.25059  -0.22453  -0.20022  -0.19838  -0.19706
 Alpha virt. eigenvalues --   -0.09403  -0.03918  -0.03332  -0.00514   0.00141
 Alpha virt. eigenvalues --    0.00358   0.02595   0.02821   0.03256   0.06638
 Alpha virt. eigenvalues --    0.06749   0.06896   0.07668   0.11146   0.12360

 Mulliken charges:
               1
     1  Co   0.334831
     2  N   -0.162098
     3  O   -0.572839
     4  C    0.325725
     5  C   -0.545940
     6  H    0.205379
     7  H    0.199807
     8  H    0.200561
     9  N   -0.076001
    10  O   -0.556599
    11  C    0.269369
    12  C   -0.547920
    13  H    0.187120
    14  H    0.190601
    15  H    0.189456
    16  N   -0.182537
    17  O   -0.568007
    18  C    0.328673
    19  C   -0.549421
    20  H    0.199254
    21  H    0.198974
    22  H    0.202703
    23  N   -0.075167
    24  O   -0.555005
    25  C    0.276304
    26  C   -0.549332
    27  H    0.187697
    28  H    0.189568
    29  H    0.187256
    30  H    0.470839
    31  H    0.472420
    32  C   -0.397894
    33  H    0.191396
    34  H    0.187310
    35  C    0.230945
    36  C   -0.268229
    37  H    0.154115
    38  C   -0.557182
    39  H    0.192783
    40  H    0.165426
    41  H    0.166244
    42  C    0.151082
    43  C   -0.204623
    44  C   -0.202252
    45  C   -0.153621
    46  H    0.153846
    47  C   -0.159629
    48  H    0.164197
    49  C   -0.151337
    50  H    0.154223
    51  H    0.153970
    52  H    0.153560
 Sum of Mulliken charges =  -0.00000

 Dipole moment (field-independent basis, Debye):
    X=              0.2259    Y=              0.0195    Z=              0.9353  Tot=              0.9624
 Quadrupole moment (field-independent basis, Debye-Ang):
   XX=           -131.0586   YY=           -182.2824   ZZ=           -157.6974
   XY=             -0.8844   XZ=            -11.3635   YZ=              3.3722

 Normal termination of Gaussian 16 at Thu Mar  2 08:13:38 2023.
