 Gaussian 16, Revision C.01,
 Gaussian 16:  ES64L-G16RevC.01  3-Jul-2019

 -----------------------------------------------------------
 # B3LYP/genecp em=GD3BJ int=fine scrf=(smd,solvent=acetone)
 -----------------------------------------------------------

 --------
 Template
 --------
 Symbolic Z-matrix:
 Charge =  0 Multiplicity = 1

                         Standard orientation:
 ---------------------------------------------------------------------
 Center     Atomic      Atomic             Coordinates (Angstroms)
 Number     Number       Type             X           Y           Z
 ---------------------------------------------------------------------
      1         27           0       -1.346824    0.247312    0.276193
      2          7           0       -0.341913    1.835549    0.373667
      3          8           0       -0.539699    2.960931   -0.375620
      4          6           0        0.614631    1.828556    1.245108
      5          6           0        1.518435    2.985439    1.500968
      6          1           0        1.169737    3.852454    0.946013
      7          1           0        2.529031    2.738345    1.179782
      8          1           0        1.547828    3.215617    2.563639
      9          7           0       -0.062005   -0.351315    1.535077
     10          8           0       -0.034801   -1.546571    2.042225
     11          6           0        0.765431    0.572595    1.936139
     12          6           0        1.805521    0.350985    2.986973
     13          1           0        1.731902   -0.676811    3.336433
     14          1           0        1.654710    1.024584    3.829094
     15          1           0        2.800472    0.522262    2.580641
     16          7           0       -2.460056   -1.257298    0.391991
     17          8           0       -2.151389   -2.448111    0.980579
     18          6           0       -3.635057   -1.106073   -0.131075
     19          6           0       -4.692569   -2.156245   -0.119223
     20          1           0       -5.636076   -1.740620    0.226253
     21          1           0       -4.388045   -2.973759    0.529194
     22          1           0       -4.839796   -2.540666   -1.127344
     23          7           0       -2.783137    0.951438   -0.709124
     24          8           0       -2.786626    2.136669   -1.226879
     25          6           0       -3.831358    0.177354   -0.758291
     26          6           0       -5.114305    0.568371   -1.419328
     27          1           0       -4.981224    1.545357   -1.879393
     28          1           0       -5.923027    0.626589   -0.692216
     29          1           0       -5.387780   -0.156490   -2.183146
     30          1           0       -1.446153    2.794649   -0.839389
     31          1           0       -1.256986   -2.262932    1.468504
     32          6           0       -0.475431   -0.338312   -1.454701
     33          1           0       -1.157564   -1.080045   -1.867925
     34          1           0       -0.472282    0.575710   -2.047377
     35          6           0        0.853365   -0.861105   -1.199980
     36          6           0        1.918493   -0.020895   -1.290387
     37          1           0        1.713513    0.992221   -1.616177
     38          6           0        0.976522   -2.329783   -0.919919
     39          1           0        0.897546   -2.524983    0.148761
     40          1           0        0.169621   -2.870920   -1.407586
     41          1           0        1.929186   -2.714693   -1.273206
     42          6           0        3.320934   -0.290323   -1.052985
     43          6           0        4.273817    0.459837   -1.755589
     44          6           0        3.779559   -1.222314   -0.116167
     45          6           0        5.625025    0.254087   -1.564746
     46          1           0        3.937142    1.197965   -2.469493
     47          6           0        5.134049   -1.413609    0.083836
     48          1           0        3.072913   -1.763741    0.489853
     49          6           0        6.062699   -0.689002   -0.646304
     50          1           0        6.342712    0.833343   -2.127456
     51          1           0        5.468485   -2.132182    0.818179
     52          1           0        7.119734   -0.848044   -0.492545
 ---------------------------------------------------------------------

 SCF Done:  E(RB3LYP) =  -1365.93379633     A.U. after   20 cycles

 The electronic state is 1-A.
 Alpha  occ. eigenvalues --  -19.16734 -19.16621 -19.12824 -19.12801 -14.41190
 Alpha  occ. eigenvalues --  -14.40856 -14.40554 -14.40501 -10.23681 -10.23547
 Alpha  occ. eigenvalues --  -10.21350 -10.21255 -10.18657 -10.18493 -10.17635
 Alpha  occ. eigenvalues --  -10.17608 -10.17570 -10.17530 -10.17500 -10.17472
 Alpha  occ. eigenvalues --  -10.17466 -10.17407 -10.17076 -10.16835 -10.16743
 Alpha  occ. eigenvalues --  -10.15357  -3.74565  -2.44600  -2.43776  -2.42734
 Alpha  occ. eigenvalues --   -1.09104  -1.08557  -1.07025  -1.06426  -0.90647
 Alpha  occ. eigenvalues --   -0.89467  -0.85868  -0.81935  -0.80982  -0.80635
 Alpha  occ. eigenvalues --   -0.75365  -0.74666  -0.74290  -0.74206  -0.70657
 Alpha  occ. eigenvalues --   -0.70521  -0.68323  -0.66428  -0.62342  -0.60359
 Alpha  occ. eigenvalues --   -0.60149  -0.58843  -0.54930  -0.53624  -0.52980
 Alpha  occ. eigenvalues --   -0.52137  -0.51397  -0.50924  -0.49475  -0.49074
 Alpha  occ. eigenvalues --   -0.47730  -0.46952  -0.46695  -0.45993  -0.45620
 Alpha  occ. eigenvalues --   -0.44573  -0.43433  -0.42774  -0.42485  -0.42291
 Alpha  occ. eigenvalues --   -0.42098  -0.41982  -0.41383  -0.40880  -0.40613
 Alpha  occ. eigenvalues --   -0.40131  -0.39527  -0.38955  -0.38884  -0.38158
 Alpha  occ. eigenvalues --   -0.38062  -0.37854  -0.37595  -0.37351  -0.36729
 Alpha  occ. eigenvalues --   -0.36414  -0.34780  -0.34624  -0.34306  -0.33489
 Alpha  occ. eigenvalues --   -0.33130  -0.30992  -0.30577  -0.28304  -0.27958
 Alpha  occ. eigenvalues --   -0.27734  -0.26804  -0.26434  -0.25234  -0.25101
 Alpha  occ. eigenvalues --   -0.25053  -0.22472  -0.20368  -0.19804  -0.19406
 Alpha virt. eigenvalues --   -0.09416  -0.03875  -0.03317  -0.00508   0.00149
 Alpha virt. eigenvalues --    0.00375   0.02628   0.02812   0.03256   0.06547
 Alpha virt. eigenvalues --    0.06667   0.06978   0.07815   0.11160   0.12477

 Mulliken charges:
               1
     1  Co   0.328561
     2  N   -0.171174
     3  O   -0.571462
     4  C    0.330593
     5  C   -0.548055
     6  H    0.199646
     7  H    0.204403
     8  H    0.199158
     9  N   -0.090417
    10  O   -0.549773
    11  C    0.274111
    12  C   -0.549675
    13  H    0.189565
    14  H    0.187297
    15  H    0.186999
    16  N   -0.169249
    17  O   -0.572275
    18  C    0.325620
    19  C   -0.546448
    20  H    0.199111
    21  H    0.200303
    22  H    0.205287
    23  N   -0.064095
    24  O   -0.555060
    25  C    0.268228
    26  C   -0.546939
    27  H    0.190428
    28  H    0.189626
    29  H    0.186926
    30  H    0.469729
    31  H    0.471996
    32  C   -0.396759
    33  H    0.186188
    34  H    0.190563
    35  C    0.236379
    36  C   -0.267682
    37  H    0.153759
    38  C   -0.557779
    39  H    0.194104
    40  H    0.164655
    41  H    0.163234
    42  C    0.149598
    43  C   -0.203758
    44  C   -0.202168
    45  C   -0.154054
    46  H    0.153525
    47  C   -0.159085
    48  H    0.165554
    49  C   -0.151232
    50  H    0.154198
    51  H    0.154155
    52  H    0.153638
 Sum of Mulliken charges =  -0.00000

 Dipole moment (field-independent basis, Debye):
    X=             -0.1743    Y=              0.1588    Z=              0.9101  Tot=              0.9401
 Quadrupole moment (field-independent basis, Debye-Ang):
   XX=           -133.4120   YY=           -173.5295   ZZ=           -164.2402
   XY=             13.6755   XZ=              5.2984   YZ=             10.9059

 Normal termination of Gaussian 16 at Thu Mar  2 08:04:54 2023.
