 Gaussian 16, Revision C.01,
 Gaussian 16:  ES64L-G16RevC.01  3-Jul-2019

 -----------------------------------------------------------
 # B3LYP/genecp em=GD3BJ int=fine scrf=(smd,solvent=acetone)
 -----------------------------------------------------------

 --------
 Template
 --------
 Symbolic Z-matrix:
 Charge =  0 Multiplicity = 1

                         Standard orientation:
 ---------------------------------------------------------------------
 Center     Atomic      Atomic             Coordinates (Angstroms)
 Number     Number       Type             X           Y           Z
 ---------------------------------------------------------------------
      1         27           0       -1.349387    0.208273    0.295482
      2          7           0       -2.525444   -1.252891    0.267223
      3          8           0       -2.274073   -2.502633    0.751874
      4          6           0       -3.686572   -1.006315   -0.250502
      5          6           0       -4.788220   -2.006286   -0.338550
      6          1           0       -4.943473   -2.291313   -1.377949
      7          1           0       -5.715852   -1.582556    0.038767
      8          1           0       -4.525006   -2.891364    0.234866
      9          7           0       -2.741572    1.054444   -0.641965
     10          8           0       -2.687253    2.277514   -1.060092
     11          6           0       -3.820468    0.333149   -0.767595
     12          6           0       -5.075941    0.832872   -1.407780
     13          1           0       -5.893782    0.859243   -0.689126
     14          1           0       -5.364823    0.190232   -2.236774
     15          1           0       -4.896786    1.840434   -1.777404
     16          7           0       -0.286258    1.740620    0.545626
     17          8           0       -0.428583    2.934677   -0.102455
     18          6           0        0.649345    1.620815    1.431404
     19          6           0        1.586214    2.716513    1.808521
     20          1           0        1.612304    2.838012    2.889022
     21          1           0        1.270653    3.645257    1.340386
     22          1           0        2.591715    2.471077    1.470418
     23          7           0       -0.110423   -0.549622    1.509633
     24          8           0       -0.134239   -1.786789    1.904048
     25          6           0        0.741164    0.302634    2.007391
     26          6           0        1.750855   -0.052461    3.051286
     27          1           0        2.758756    0.135022    2.686423
     28          1           0        1.644506   -1.108404    3.291577
     29          1           0        1.595284    0.534347    3.955347
     30          1           0       -1.376279   -2.400271    1.258165
     31          1           0       -1.330733    2.844256   -0.595477
     32          6           0       -0.471169   -0.263788   -1.466827
     33          1           0       -1.143862   -0.990792   -1.919867
     34          1           0       -0.485085    0.683933   -2.003759
     35          6           0        0.868254   -0.778894   -1.253612
     36          6           0        1.917384    0.084581   -1.294324
     37          1           0        1.693199    1.113498   -1.550284
     38          6           0        1.019585   -2.261066   -1.076966
     39          1           0        0.237502   -2.781647   -1.624140
     40          1           0        1.988718   -2.599131   -1.432950
     41          1           0        0.917999   -2.537284   -0.028264
     42          6           0        3.326022   -0.176217   -1.083934
     43          6           0        4.261747    0.624644   -1.752368
     44          6           0        3.805333   -1.150425   -0.202275
     45          6           0        5.617331    0.428486   -1.583366
     46          1           0        3.908308    1.395108   -2.422591
     47          6           0        5.164049   -1.332529   -0.023164
     48          1           0        3.110410   -1.734218    0.377848
     49          6           0        6.075983   -0.556057   -0.720382
     50          1           0        6.321940    1.047552   -2.119571
     51          1           0        5.515084   -2.084673    0.668586
     52          1           0        7.136436   -0.707626   -0.583617
 ---------------------------------------------------------------------

 SCF Done:  E(RB3LYP) =  -1365.93350552     A.U. after   20 cycles

 The electronic state is 1-A.
 Alpha  occ. eigenvalues --  -19.16754 -19.16618 -19.12823 -19.12797 -14.41177
 Alpha  occ. eigenvalues --  -14.40876 -14.40556 -14.40514 -10.23689 -10.23539
 Alpha  occ. eigenvalues --  -10.21362 -10.21295 -10.18657 -10.18485 -10.17641
 Alpha  occ. eigenvalues --  -10.17616 -10.17576 -10.17533 -10.17517 -10.17471
 Alpha  occ. eigenvalues --  -10.17468 -10.17407 -10.17073 -10.16836 -10.16757
 Alpha  occ. eigenvalues --  -10.15365  -3.74588  -2.44620  -2.43796  -2.42764
 Alpha  occ. eigenvalues --   -1.09111  -1.08564  -1.07020  -1.06429  -0.90655
 Alpha  occ. eigenvalues --   -0.89474  -0.85876  -0.81944  -0.80981  -0.80644
 Alpha  occ. eigenvalues --   -0.75366  -0.74670  -0.74299  -0.74208  -0.70661
 Alpha  occ. eigenvalues --   -0.70531  -0.68326  -0.66428  -0.62349  -0.60365
 Alpha  occ. eigenvalues --   -0.60159  -0.58844  -0.54936  -0.53625  -0.52983
 Alpha  occ. eigenvalues --   -0.52144  -0.51405  -0.50932  -0.49498  -0.49073
 Alpha  occ. eigenvalues --   -0.47729  -0.46974  -0.46704  -0.46000  -0.45602
 Alpha  occ. eigenvalues --   -0.44579  -0.43434  -0.42790  -0.42495  -0.42300
 Alpha  occ. eigenvalues --   -0.42112  -0.41993  -0.41388  -0.40877  -0.40622
 Alpha  occ. eigenvalues --   -0.40117  -0.39532  -0.38977  -0.38886  -0.38149
 Alpha  occ. eigenvalues --   -0.38061  -0.37859  -0.37606  -0.37368  -0.36719
 Alpha  occ. eigenvalues --   -0.36414  -0.34809  -0.34613  -0.34309  -0.33491
 Alpha  occ. eigenvalues --   -0.33137  -0.30997  -0.30575  -0.28325  -0.27968
 Alpha  occ. eigenvalues --   -0.27746  -0.26772  -0.26448  -0.25243  -0.25110
 Alpha  occ. eigenvalues --   -0.25060  -0.22472  -0.20360  -0.19815  -0.19468
 Alpha virt. eigenvalues --   -0.09421  -0.03878  -0.03340  -0.00510   0.00128
 Alpha virt. eigenvalues --    0.00364   0.02615   0.02800   0.03251   0.06568
 Alpha virt. eigenvalues --    0.06666   0.06930   0.07787   0.11149   0.12491

 Mulliken charges:
               1
     1  Co   0.329796
     2  N   -0.169333
     3  O   -0.572510
     4  C    0.326290
     5  C   -0.546392
     6  H    0.205248
     7  H    0.199260
     8  H    0.200271
     9  N   -0.065243
    10  O   -0.555391
    11  C    0.268788
    12  C   -0.547044
    13  H    0.189653
    14  H    0.187145
    15  H    0.190398
    16  N   -0.171074
    17  O   -0.571174
    18  C    0.331618
    19  C   -0.548104
    20  H    0.198742
    21  H    0.199346
    22  H    0.204631
    23  N   -0.090849
    24  O   -0.549990
    25  C    0.273652
    26  C   -0.549928
    27  H    0.186818
    28  H    0.189867
    29  H    0.187869
    30  H    0.471581
    31  H    0.469718
    32  C   -0.396793
    33  H    0.186880
    34  H    0.191114
    35  C    0.235234
    36  C   -0.267996
    37  H    0.154055
    38  C   -0.558720
    39  H    0.164528
    40  H    0.163009
    41  H    0.194731
    42  C    0.148575
    43  C   -0.203164
    44  C   -0.202548
    45  C   -0.154027
    46  H    0.153596
    47  C   -0.159272
    48  H    0.166167
    49  C   -0.151177
    50  H    0.154268
    51  H    0.154213
    52  H    0.153668
 Sum of Mulliken charges =  -0.00000

 Dipole moment (field-independent basis, Debye):
    X=             -0.2040    Y=              0.1403    Z=              0.9673  Tot=              0.9985
 Quadrupole moment (field-independent basis, Debye-Ang):
   XX=           -132.4661   YY=           -176.6857   ZZ=           -161.7933
   XY=             11.4494   XZ=              7.1817   YZ=              9.6697

 Normal termination of Gaussian 16 at Thu Mar  2 08:07:37 2023.
