 Gaussian 16, Revision C.01,
 Gaussian 16:  ES64L-G16RevC.01  3-Jul-2019

 -----------------------------------------------------------
 # B3LYP/genecp em=GD3BJ int=fine scrf=(smd,solvent=acetone)
 -----------------------------------------------------------

 --------
 Template
 --------
 Symbolic Z-matrix:
 Charge =  0 Multiplicity = 1

                         Standard orientation:
 ---------------------------------------------------------------------
 Center     Atomic      Atomic             Coordinates (Angstroms)
 Number     Number       Type             X           Y           Z
 ---------------------------------------------------------------------
      1         27           0        1.362172    0.202216    0.246016
      2          7           0        2.979775    0.384642   -0.688276
      3          8           0        3.358825    1.460889   -1.436378
      4          6           0        3.793159   -0.615921   -0.577785
      5          6           0        5.146039   -0.660286   -1.201470
      6          1           0        5.396299    0.319449   -1.600170
      7          1           0        5.151394   -1.384322   -2.014703
      8          1           0        5.891459   -0.964665   -0.470630
      9          7           0        2.048060   -1.522612    0.618550
     10          8           0        1.418861   -2.425413    1.305163
     11          6           0        3.262705   -1.718406    0.186839
     12          6           0        4.033914   -2.976167    0.430649
     13          1           0        4.346004   -3.422897   -0.511091
     14          1           0        3.394841   -3.674561    0.967232
     15          1           0        4.921437   -2.776022    1.029283
     16          7           0       -0.101038    0.094132    1.424671
     17          8           0       -0.569053   -1.033635    2.031780
     18          6           0       -0.663100    1.227592    1.694094
     19          6           0       -1.800997    1.390434    2.642385
     20          1           0       -1.951636    0.466115    3.193861
     21          1           0       -2.709625    1.621339    2.088599
     22          1           0       -1.606280    2.206996    3.333606
     23          7           0        0.844604    2.002456    0.135701
     24          8           0        1.431210    2.882006   -0.615891
     25          6           0       -0.108487    2.338135    0.959874
     26          6           0       -0.609918    3.738459    1.112337
     27          1           0       -0.094233    4.371289    0.392911
     28          1           0       -0.413557    4.112194    2.116370
     29          1           0       -1.681577    3.782976    0.931149
     30          1           0        2.631764    2.173067   -1.239414
     31          1           0        0.143063   -1.751802    1.807336
     32          6           0        0.397994   -0.364821   -1.452560
     33          1           0        0.908851    0.200804   -2.230885
     34          1           0        0.627372   -1.429086   -1.502749
     35          6           0       -1.028953   -0.101418   -1.430089
     36          6           0       -1.870167   -1.028766   -0.903867
     37          1           0       -1.412940   -1.899876   -0.451519
     38          6           0       -1.490583    1.201281   -2.017710
     39          1           0       -2.401656    1.551932   -1.541039
     40          1           0       -0.717809    1.956857   -1.911586
     41          1           0       -1.681219    1.078099   -3.083404
     42          6           0       -3.313027   -0.986007   -0.772477
     43          6           0       -4.166574   -0.396267   -1.709125
     44          6           0       -3.885991   -1.596364    0.351036
     45          6           0       -5.535066   -0.389288   -1.509476
     46          1           0       -3.762701    0.018806   -2.617512
     47          6           0       -5.250638   -1.569945    0.555590
     48          1           0       -3.237928   -2.065915    1.076727
     49          6           0       -6.082885   -0.962104   -0.373103
     50          1           0       -6.180080    0.064770   -2.247933
     51          1           0       -5.671427   -2.030618    1.437685
     52          1           0       -7.151541   -0.946692   -0.217334
 ---------------------------------------------------------------------

 SCF Done:  E(RB3LYP) =  -1365.93055313     A.U. after   20 cycles

 The electronic state is 1-A.
 Alpha  occ. eigenvalues --  -19.16660 -19.16656 -19.12762 -19.12716 -14.40986
 Alpha  occ. eigenvalues --  -14.40946 -14.40566 -14.40391 -10.23682 -10.23469
 Alpha  occ. eigenvalues --  -10.21383 -10.21358 -10.18569 -10.18439 -10.17560
 Alpha  occ. eigenvalues --  -10.17533 -10.17488 -10.17473 -10.17472 -10.17450
 Alpha  occ. eigenvalues --  -10.17391 -10.17373 -10.16982 -10.16820 -10.16812
 Alpha  occ. eigenvalues --  -10.15719  -3.74527  -2.44560  -2.43721  -2.42714
 Alpha  occ. eigenvalues --   -1.09077  -1.08542  -1.06892  -1.06352  -0.90624
 Alpha  occ. eigenvalues --   -0.89428  -0.85790  -0.81927  -0.80950  -0.80607
 Alpha  occ. eigenvalues --   -0.75325  -0.74648  -0.74211  -0.74192  -0.70655
 Alpha  occ. eigenvalues --   -0.70533  -0.68410  -0.66415  -0.62334  -0.60329
 Alpha  occ. eigenvalues --   -0.60077  -0.58792  -0.54904  -0.53554  -0.52973
 Alpha  occ. eigenvalues --   -0.52124  -0.51326  -0.50877  -0.49426  -0.49008
 Alpha  occ. eigenvalues --   -0.47656  -0.47001  -0.46643  -0.46163  -0.45335
 Alpha  occ. eigenvalues --   -0.44512  -0.43387  -0.42771  -0.42329  -0.42291
 Alpha  occ. eigenvalues --   -0.42058  -0.41931  -0.41527  -0.40914  -0.40609
 Alpha  occ. eigenvalues --   -0.40010  -0.39592  -0.39141  -0.38832  -0.38425
 Alpha  occ. eigenvalues --   -0.38089  -0.38025  -0.37601  -0.37310  -0.36801
 Alpha  occ. eigenvalues --   -0.36286  -0.34922  -0.34339  -0.34278  -0.33286
 Alpha  occ. eigenvalues --   -0.32906  -0.31027  -0.30499  -0.28389  -0.28006
 Alpha  occ. eigenvalues --   -0.27757  -0.26582  -0.26277  -0.25197  -0.25053
 Alpha  occ. eigenvalues --   -0.24969  -0.22362  -0.20171  -0.19806  -0.19587
 Alpha virt. eigenvalues --   -0.09229  -0.03868  -0.03443  -0.00442   0.00151
 Alpha virt. eigenvalues --    0.00452   0.02606   0.02885   0.03285   0.06004
 Alpha virt. eigenvalues --    0.06718   0.06796   0.07830   0.11041   0.12246

 Mulliken charges:
               1
     1  Co   0.333929
     2  N   -0.164973
     3  O   -0.573178
     4  C    0.326973
     5  C   -0.545960
     6  H    0.200305
     7  H    0.205390
     8  H    0.199244
     9  N   -0.079799
    10  O   -0.557423
    11  C    0.268859
    12  C   -0.548299
    13  H    0.187043
    14  H    0.190399
    15  H    0.189354
    16  N   -0.169098
    17  O   -0.567793
    18  C    0.322954
    19  C   -0.546827
    20  H    0.198983
    21  H    0.205159
    22  H    0.197015
    23  N   -0.083670
    24  O   -0.557646
    25  C    0.276808
    26  C   -0.549364
    27  H    0.190371
    28  H    0.189344
    29  H    0.187333
    30  H    0.471268
    31  H    0.471222
    32  C   -0.405418
    33  H    0.190782
    34  H    0.198603
    35  C    0.231993
    36  C   -0.249340
    37  H    0.149599
    38  C   -0.559136
    39  H    0.168115
    40  H    0.181927
    41  H    0.178996
    42  C    0.139928
    43  C   -0.200806
    44  C   -0.202033
    45  C   -0.158447
    46  H    0.159818
    47  C   -0.155266
    48  H    0.155356
    49  C   -0.151722
    50  H    0.153189
    51  H    0.153314
    52  H    0.152626
 Sum of Mulliken charges =  -0.00000

 Dipole moment (field-independent basis, Debye):
    X=              0.2207    Y=              0.5326    Z=              0.8221  Tot=              1.0041
 Quadrupole moment (field-independent basis, Debye-Ang):
   XX=           -138.0376   YY=           -172.0223   ZZ=           -161.1722
   XY=            -18.0076   XZ=             -2.5041   YZ=             11.3472

 Normal termination of Gaussian 16 at Thu Mar  2 08:21:32 2023.
