 Gaussian 16, Revision C.01,
 Gaussian 16:  ES64L-G16RevC.01  3-Jul-2019

 -----------------------------------------------------------
 # B3LYP/genecp em=GD3BJ int=fine scrf=(smd,solvent=acetone)
 -----------------------------------------------------------

 --------
 Template
 --------
 Symbolic Z-matrix:
 Charge =  0 Multiplicity = 1

                         Standard orientation:
 ---------------------------------------------------------------------
 Center     Atomic      Atomic             Coordinates (Angstroms)
 Number     Number       Type             X           Y           Z
 ---------------------------------------------------------------------
      1         27           0        1.366283    0.196128    0.187414
      2          7           0       -0.056033    0.843600    1.240368
      3          8           0       -0.885575    0.102144    2.028651
      4          6           0       -0.191030    2.131125    1.231989
      5          6           0       -1.197056    2.867516    2.051300
      6          1           0       -1.724090    3.597977    1.442539
      7          1           0       -0.698033    3.400262    2.859974
      8          1           0       -1.903413    2.160716    2.479531
      9          7           0        1.518163    2.004047   -0.306461
     10          8           0        2.390759    2.453482   -1.152804
     11          6           0        0.722560    2.807388    0.343143
     12          6           0        0.737121    4.293453    0.173996
     13          1           0        1.572492    4.558709   -0.470834
     14          1           0        0.848558    4.791134    1.135152
     15          1           0       -0.186165    4.638245   -0.289199
     16          7           0        2.967154   -0.379245   -0.604421
     17          8           0        3.744542    0.338561   -1.464810
     18          6           0        3.355073   -1.562984   -0.252681
     19          6           0        4.621420   -2.195843   -0.719559
     20          1           0        4.393465   -3.016447   -1.398000
     21          1           0        5.178817   -2.597062    0.123541
     22          1           0        5.224321   -1.460362   -1.245753
     23          7           0        1.362782   -1.553868    0.902096
     24          8           0        0.423382   -2.034409    1.654516
     25          6           0        2.431187   -2.246402    0.619283
     26          6           0        2.673497   -3.633083    1.124570
     27          1           0        3.555220   -3.663924    1.763019
     28          1           0        2.823017   -4.322788    0.296326
     29          1           0        1.806343   -3.945644    1.702956
     30          1           0       -0.508072   -0.858783    1.956690
     31          1           0        3.300348    1.275453   -1.485080
     32          6           0        0.347692   -0.314321   -1.484186
     33          1           0        0.842533    0.253154   -2.271041
     34          1           0        0.545252   -1.382043   -1.573997
     35          6           0       -1.062157   -0.007376   -1.349070
     36          6           0       -1.892304   -0.954635   -0.833618
     37          1           0       -1.435861   -1.903235   -0.577800
     38          6           0       -1.533074    1.324418   -1.859570
     39          1           0       -0.817629    1.725993   -2.572572
     40          1           0       -2.501328    1.225883   -2.343899
     41          1           0       -1.623122    2.042165   -1.046360
     42          6           0       -3.320037   -0.921248   -0.605399
     43          6           0       -4.007988   -2.143520   -0.592567
     44          6           0       -4.055879    0.242771   -0.360498
     45          6           0       -5.371558   -2.195800   -0.390267
     46          1           0       -3.455521   -3.057174   -0.758905
     47          6           0       -5.419697    0.185221   -0.142363
     48          1           0       -3.555627    1.192936   -0.297787
     49          6           0       -6.087343   -1.028424   -0.168620
     50          1           0       -5.881116   -3.148542   -0.397505
     51          1           0       -5.967733    1.095657    0.053155
     52          1           0       -7.154170   -1.067225   -0.005134
 ---------------------------------------------------------------------

 SCF Done:  E(RB3LYP) =  -1365.93201006     A.U. after   20 cycles

 The electronic state is 1-A.
 Alpha  occ. eigenvalues --  -19.16585 -19.16386 -19.12647 -19.12603 -14.40943
 Alpha  occ. eigenvalues --  -14.40881 -14.40541 -14.40360 -10.23566 -10.23524
 Alpha  occ. eigenvalues --  -10.21318 -10.21294 -10.18638 -10.18554 -10.17599
 Alpha  occ. eigenvalues --  -10.17560 -10.17533 -10.17486 -10.17472 -10.17444
 Alpha  occ. eigenvalues --  -10.17436 -10.17423 -10.17168 -10.16815 -10.16790
 Alpha  occ. eigenvalues --  -10.15957  -3.74330  -2.44363  -2.43573  -2.42476
 Alpha  occ. eigenvalues --   -1.08994  -1.08429  -1.06848  -1.06296  -0.90540
 Alpha  occ. eigenvalues --   -0.89345  -0.85833  -0.81854  -0.81031  -0.80535
 Alpha  occ. eigenvalues --   -0.75401  -0.74621  -0.74257  -0.74154  -0.70622
 Alpha  occ. eigenvalues --   -0.70501  -0.68615  -0.66412  -0.62274  -0.60284
 Alpha  occ. eigenvalues --   -0.60133  -0.58859  -0.54850  -0.53482  -0.53089
 Alpha  occ. eigenvalues --   -0.52034  -0.51235  -0.50816  -0.49539  -0.48942
 Alpha  occ. eigenvalues --   -0.47567  -0.46928  -0.46760  -0.46205  -0.45372
 Alpha  occ. eigenvalues --   -0.44438  -0.43457  -0.42558  -0.42393  -0.42182
 Alpha  occ. eigenvalues --   -0.42028  -0.41899  -0.41550  -0.40718  -0.40520
 Alpha  occ. eigenvalues --   -0.39980  -0.39729  -0.39257  -0.38835  -0.38236
 Alpha  occ. eigenvalues --   -0.38065  -0.37992  -0.37574  -0.37305  -0.36933
 Alpha  occ. eigenvalues --   -0.36530  -0.35036  -0.34302  -0.34270  -0.33381
 Alpha  occ. eigenvalues --   -0.33101  -0.30878  -0.30456  -0.28200  -0.27918
 Alpha  occ. eigenvalues --   -0.27665  -0.26745  -0.26161  -0.25052  -0.24981
 Alpha  occ. eigenvalues --   -0.24932  -0.22274  -0.20109  -0.19641  -0.19521
 Alpha virt. eigenvalues --   -0.09171  -0.03826  -0.03292  -0.00352   0.00281
 Alpha virt. eigenvalues --    0.00462   0.02611   0.02842   0.03277   0.06512
 Alpha virt. eigenvalues --    0.06730   0.06795   0.07407   0.11198   0.12429

 Mulliken charges:
               1
     1  Co   0.321001
     2  N   -0.171504
     3  O   -0.568863
     4  C    0.314405
     5  C   -0.547704
     6  H    0.196666
     7  H    0.204515
     8  H    0.201314
     9  N   -0.074129
    10  O   -0.558476
    11  C    0.273194
    12  C   -0.548042
    13  H    0.190632
    14  H    0.185761
    15  H    0.188893
    16  N   -0.160426
    17  O   -0.573428
    18  C    0.324125
    19  C   -0.546213
    20  H    0.204574
    21  H    0.198785
    22  H    0.200079
    23  N   -0.075790
    24  O   -0.555491
    25  C    0.267358
    26  C   -0.548392
    27  H    0.188737
    28  H    0.186612
    29  H    0.190079
    30  H    0.471772
    31  H    0.469977
    32  C   -0.399040
    33  H    0.185028
    34  H    0.192330
    35  C    0.227316
    36  C   -0.247339
    37  H    0.152757
    38  C   -0.553327
    39  H    0.172648
    40  H    0.171671
    41  H    0.187060
    42  C    0.155728
    43  C   -0.205027
    44  C   -0.203006
    45  C   -0.153542
    46  H    0.153889
    47  C   -0.157834
    48  H    0.160752
    49  C   -0.150865
    50  H    0.153957
    51  H    0.153286
    52  H    0.153537
 Sum of Mulliken charges =  -0.00000

 Dipole moment (field-independent basis, Debye):
    X=             -0.1489    Y=              0.4105    Z=              0.8357  Tot=              0.9429
 Quadrupole moment (field-independent basis, Debye-Ang):
   XX=           -153.1167   YY=           -144.9532   ZZ=           -173.0635
   XY=            -20.7635   XZ=              6.5238   YZ=             12.5826

 Normal termination of Gaussian 16 at Thu Mar  2 08:50:53 2023.
