 Gaussian 16, Revision C.01,
 Gaussian 16:  ES64L-G16RevC.01  3-Jul-2019

 -----------------------------------------------------------
 # B3LYP/genecp em=GD3BJ int=fine scrf=(smd,solvent=acetone)
 -----------------------------------------------------------

 --------
 Template
 --------
 Symbolic Z-matrix:
 Charge =  0 Multiplicity = 1

                         Standard orientation:
 ---------------------------------------------------------------------
 Center     Atomic      Atomic             Coordinates (Angstroms)
 Number     Number       Type             X           Y           Z
 ---------------------------------------------------------------------
      1         27           0        1.357355    0.225212    0.237290
      2          7           0        3.010023    0.211692   -0.649253
      3          8           0        3.519587    1.219449   -1.414048
      4          6           0        3.713493   -0.861920   -0.483309
      5          6           0        5.070924   -1.062984   -1.064833
      6          1           0        5.751398   -1.460787   -0.316186
      7          1           0        5.447937   -0.117179   -1.445627
      8          1           0        5.014542   -1.774423   -1.887475
      9          7           0        1.856231   -1.542189    0.693512
     10          8           0        1.120054   -2.352014    1.390177
     11          6           0        3.052241   -1.878514    0.298407
     12          6           0        3.678813   -3.202867    0.597976
     13          1           0        3.989606   -3.696237   -0.320466
     14          1           0        2.946665   -3.822345    1.112206
     15          1           0        4.551388   -3.082310    1.238668
     16          7           0       -0.145285    0.308217    1.370291
     17          8           0       -0.726753   -0.740574    2.017769
     18          6           0       -0.625176    1.495752    1.550377
     19          6           0       -1.790037    1.796187    2.429809
     20          1           0       -2.011902    0.930272    3.048278
     21          1           0       -2.662646    2.018228    1.817297
     22          1           0       -1.583718    2.659408    3.057525
     23          7           0        1.010102    2.059387    0.029897
     24          8           0        1.704852    2.847170   -0.731456
     25          6           0        0.053240    2.516117    0.789259
     26          6           0       -0.331010    3.959960    0.850271
     27          1           0       -1.387775    4.084759    0.624673
     28          1           0        0.262979    4.507440    0.121139
     29          1           0       -0.137989    4.369520    1.840966
     30          1           0        2.856950    2.004417   -1.271522
     31          1           0       -0.079215   -1.531389    1.840921
     32          6           0        0.415271   -0.309859   -1.480704
     33          1           0        0.902405    0.299547   -2.241041
     34          1           0        0.677685   -1.363561   -1.573616
     35          6           0       -1.018763   -0.091941   -1.430807
     36          6           0       -1.822223   -1.043709   -0.891037
     37          1           0       -1.334761   -1.904964   -0.451468
     38          6           0       -1.531055    1.200820   -1.998578
     39          1           0       -1.718494    1.084972   -3.065631
     40          1           0       -2.454661    1.509428   -1.517229
     41          1           0       -0.786182    1.982560   -1.881941
     42          6           0       -3.263355   -1.026760   -0.726893
     43          6           0       -3.800258   -1.595330    0.434732
     44          6           0       -4.145268   -0.497335   -1.672539
     45          6           0       -5.161741   -1.590928    0.662091
     46          1           0       -3.128219   -2.011490    1.170631
     47          6           0       -5.510114   -0.513474   -1.449408
     48          1           0       -3.764424   -0.112136   -2.604211
     49          6           0       -6.024123   -1.047850   -0.279022
     50          1           0       -5.556090   -2.018666    1.572560
     51          1           0       -6.178490   -0.108251   -2.195484
     52          1           0       -7.090138   -1.051730   -0.105205
 ---------------------------------------------------------------------

 SCF Done:  E(RB3LYP) =  -1365.93100963     A.U. after   21 cycles

 The electronic state is 1-A.
 Alpha  occ. eigenvalues --  -19.16669 -19.16611 -19.12764 -19.12710 -14.40962
 Alpha  occ. eigenvalues --  -14.40946 -14.40597 -14.40365 -10.23666 -10.23459
 Alpha  occ. eigenvalues --  -10.21390 -10.21350 -10.18494 -10.18412 -10.17525
 Alpha  occ. eigenvalues --  -10.17490 -10.17474 -10.17471 -10.17446 -10.17421
 Alpha  occ. eigenvalues --  -10.17367 -10.17308 -10.16958 -10.16827 -10.16805
 Alpha  occ. eigenvalues --  -10.15791  -3.74503  -2.44538  -2.43704  -2.42680
 Alpha  occ. eigenvalues --   -1.09088  -1.08557  -1.06877  -1.06344  -0.90616
 Alpha  occ. eigenvalues --   -0.89410  -0.85751  -0.81927  -0.80946  -0.80594
 Alpha  occ. eigenvalues --   -0.75278  -0.74630  -0.74174  -0.74165  -0.70654
 Alpha  occ. eigenvalues --   -0.70526  -0.68416  -0.66409  -0.62335  -0.60318
 Alpha  occ. eigenvalues --   -0.60024  -0.58754  -0.54914  -0.53546  -0.52924
 Alpha  occ. eigenvalues --   -0.52118  -0.51313  -0.50866  -0.49437  -0.49008
 Alpha  occ. eigenvalues --   -0.47635  -0.47026  -0.46636  -0.46085  -0.45276
 Alpha  occ. eigenvalues --   -0.44494  -0.43389  -0.42819  -0.42302  -0.42289
 Alpha  occ. eigenvalues --   -0.42056  -0.41922  -0.41522  -0.40890  -0.40599
 Alpha  occ. eigenvalues --   -0.39983  -0.39612  -0.39233  -0.38802  -0.38331
 Alpha  occ. eigenvalues --   -0.38097  -0.38040  -0.37602  -0.37350  -0.36746
 Alpha  occ. eigenvalues --   -0.36392  -0.34949  -0.34337  -0.34239  -0.33294
 Alpha  occ. eigenvalues --   -0.32908  -0.30976  -0.30410  -0.28351  -0.28036
 Alpha  occ. eigenvalues --   -0.27765  -0.26444  -0.26229  -0.25170  -0.25047
 Alpha  occ. eigenvalues --   -0.24915  -0.22379  -0.20241  -0.19823  -0.19503
 Alpha virt. eigenvalues --   -0.09198  -0.03792  -0.03419  -0.00434   0.00226
 Alpha virt. eigenvalues --    0.00510   0.02605   0.02845   0.03318   0.05916
 Alpha virt. eigenvalues --    0.06720   0.06778   0.07840   0.11052   0.12265

 Mulliken charges:
               1
     1  Co   0.328162
     2  N   -0.161163
     3  O   -0.572983
     4  C    0.324643
     5  C   -0.544959
     6  H    0.198456
     7  H    0.200134
     8  H    0.205823
     9  N   -0.079276
    10  O   -0.557054
    11  C    0.269567
    12  C   -0.548047
    13  H    0.186778
    14  H    0.190430
    15  H    0.189795
    16  N   -0.169572
    17  O   -0.566189
    18  C    0.322697
    19  C   -0.546281
    20  H    0.199251
    21  H    0.205886
    22  H    0.196093
    23  N   -0.080172
    24  O   -0.559527
    25  C    0.273755
    26  C   -0.549221
    27  H    0.186798
    28  H    0.190306
    29  H    0.189347
    30  H    0.471244
    31  H    0.471588
    32  C   -0.402758
    33  H    0.189356
    34  H    0.197577
    35  C    0.230609
    36  C   -0.245151
    37  H    0.148001
    38  C   -0.555228
    39  H    0.179529
    40  H    0.168242
    41  H    0.181245
    42  C    0.134915
    43  C   -0.197621
    44  C   -0.199720
    45  C   -0.156102
    46  H    0.154903
    47  C   -0.158746
    48  H    0.158907
    49  C   -0.151884
    50  H    0.152718
    51  H    0.152749
    52  H    0.152146
 Sum of Mulliken charges =  -0.00000

 Dipole moment (field-independent basis, Debye):
    X=              0.1821    Y=              0.4501    Z=              0.7230  Tot=              0.8709
 Quadrupole moment (field-independent basis, Debye-Ang):
   XX=           -142.0094   YY=           -167.4343   ZZ=           -162.6309
   XY=            -21.0009   XZ=              0.1586   YZ=             11.1138

 Normal termination of Gaussian 16 at Thu Mar  2 08:16:55 2023.
