 Gaussian 16, Revision C.01,
 Gaussian 16:  ES64L-G16RevC.01  3-Jul-2019

 -----------------------------------------------------------
 # B3LYP/genecp em=GD3BJ int=fine scrf=(smd,solvent=acetone)
 -----------------------------------------------------------

 --------
 Template
 --------
 Symbolic Z-matrix:
 Charge =  0 Multiplicity = 1

                         Standard orientation:
 ---------------------------------------------------------------------
 Center     Atomic      Atomic             Coordinates (Angstroms)
 Number     Number       Type             X           Y           Z
 ---------------------------------------------------------------------
      1         27           0       -1.384785    0.303669    0.180933
      2          7           0       -1.618273    2.096163   -0.358731
      3          8           0       -2.533752    2.554238   -1.262872
      4          6           0       -0.806583    2.942719    0.188591
      5          6           0       -0.821061    4.407769   -0.088026
      6          1           0       -0.834652    4.968898    0.843396
      7          1           0       -1.695271    4.658368   -0.683409
      8          1           0        0.074920    4.687495   -0.639993
      9          7           0        0.027622    1.047911    1.199904
     10          8           0        0.783006    0.369962    2.006123
     11          6           0        0.139294    2.342930    1.097239
     12          6           0        1.157098    3.141985    1.847053
     13          1           0        1.732190    3.766162    1.166748
     14          1           0        1.825318    2.452376    2.359091
     15          1           0        0.679665    3.784510    2.586007
     16          7           0       -1.302000   -1.407907    0.929340
     17          8           0       -0.313609   -1.882418    1.740125
     18          6           0       -2.300095   -2.182382    0.645696
     19          6           0       -2.442461   -3.575887    1.155219
     20          1           0       -2.286565   -4.281474    0.340547
     21          1           0       -3.440544   -3.734780    1.555854
     22          1           0       -1.700052   -3.759762    1.927614
     23          7           0       -2.967963   -0.364911   -0.595849
     24          8           0       -3.738724    0.323983   -1.375782
     25          6           0       -3.272971   -1.579152   -0.231057
     26          6           0       -4.508636   -2.290451   -0.681866
     27          1           0       -4.255540   -3.241541   -1.145400
     28          1           0       -5.025051   -1.661080   -1.403882
     29          1           0       -5.174302   -2.481547    0.158819
     30          1           0       -3.126557    1.729719   -1.457087
     31          1           0        0.267544   -1.041554    1.946798
     32          6           0       -0.295963   -0.152682   -1.480015
     33          1           0       -0.959125   -0.792603   -2.059637
     34          1           0       -0.178576    0.823255   -1.949248
     35          6           0        0.971509   -0.783857   -1.168148
     36          6           0        2.068354   -0.000333   -0.985633
     37          1           0        1.928301    1.065023   -1.128143
     38          6           0        1.019514   -2.284376   -1.155472
     39          1           0        0.222507   -2.686136   -1.776558
     40          1           0        1.975593   -2.637938   -1.532481
     41          1           0        0.884102   -2.670599   -0.147421
     42          6           0        3.431869   -0.372610   -0.677611
     43          6           0        3.786075   -1.507951    0.058620
     44          6           0        4.460738    0.478153   -1.106536
     45          6           0        5.112911   -1.790795    0.324323
     46          1           0        3.020969   -2.145785    0.465194
     47          6           0        5.784503    0.183760   -0.852732
     48          1           0        4.207036    1.370630   -1.661029
     49          6           0        6.118556   -0.957906   -0.139081
     50          1           0        5.365065   -2.668240    0.902209
     51          1           0        6.561352    0.847110   -1.204848
     52          1           0        7.153885   -1.188069    0.064883
 ---------------------------------------------------------------------

 SCF Done:  E(RB3LYP) =  -1365.93060991     A.U. after   20 cycles

 The electronic state is 1-A.
 Alpha  occ. eigenvalues --  -19.16581 -19.16548 -19.12773 -19.12592 -14.41045
 Alpha  occ. eigenvalues --  -14.40841 -14.40480 -14.40398 -10.23674 -10.23590
 Alpha  occ. eigenvalues --  -10.21272 -10.21204 -10.18619 -10.18405 -10.17598
 Alpha  occ. eigenvalues --  -10.17562 -10.17532 -10.17507 -10.17471 -10.17457
 Alpha  occ. eigenvalues --  -10.17440 -10.17392 -10.17189 -10.16815 -10.16739
 Alpha  occ. eigenvalues --  -10.15492  -3.74374  -2.44375  -2.43622  -2.42538
 Alpha  occ. eigenvalues --   -1.09029  -1.08478  -1.06908  -1.06332  -0.90569
 Alpha  occ. eigenvalues --   -0.89362  -0.85830  -0.81871  -0.80936  -0.80530
 Alpha  occ. eigenvalues --   -0.75337  -0.74638  -0.74253  -0.74175  -0.70626
 Alpha  occ. eigenvalues --   -0.70482  -0.68372  -0.66388  -0.62305  -0.60276
 Alpha  occ. eigenvalues --   -0.60113  -0.58826  -0.54859  -0.53539  -0.53000
 Alpha  occ. eigenvalues --   -0.52071  -0.51276  -0.50830  -0.49395  -0.49032
 Alpha  occ. eigenvalues --   -0.47638  -0.46912  -0.46597  -0.46108  -0.45483
 Alpha  occ. eigenvalues --   -0.44429  -0.43681  -0.42707  -0.42336  -0.42192
 Alpha  occ. eigenvalues --   -0.42065  -0.41889  -0.41473  -0.40922  -0.40543
 Alpha  occ. eigenvalues --   -0.40026  -0.39609  -0.38965  -0.38661  -0.38212
 Alpha  occ. eigenvalues --   -0.38071  -0.37991  -0.37568  -0.37224  -0.36746
 Alpha  occ. eigenvalues --   -0.36355  -0.34815  -0.34418  -0.34259  -0.33359
 Alpha  occ. eigenvalues --   -0.33125  -0.30891  -0.30309  -0.28304  -0.27911
 Alpha  occ. eigenvalues --   -0.27688  -0.26705  -0.26246  -0.25059  -0.25012
 Alpha  occ. eigenvalues --   -0.24980  -0.22321  -0.20030  -0.19721  -0.19598
 Alpha virt. eigenvalues --   -0.09272  -0.03939  -0.03422  -0.00366   0.00264
 Alpha virt. eigenvalues --    0.00477   0.02664   0.02729   0.03247   0.06365
 Alpha virt. eigenvalues --    0.06769   0.06969   0.07741   0.11158   0.12175

 Mulliken charges:
               1
     1  Co   0.334486
     2  N   -0.169049
     3  O   -0.573646
     4  C    0.320756
     5  C   -0.546549
     6  H    0.198862
     7  H    0.199945
     8  H    0.204374
     9  N   -0.080343
    10  O   -0.553834
    11  C    0.269873
    12  C   -0.547747
    13  H    0.184725
    14  H    0.190917
    15  H    0.188365
    16  N   -0.174387
    17  O   -0.568756
    18  C    0.325578
    19  C   -0.545906
    20  H    0.205245
    21  H    0.198738
    22  H    0.199956
    23  N   -0.068344
    24  O   -0.556264
    25  C    0.266467
    26  C   -0.547118
    27  H    0.186016
    28  H    0.189711
    29  H    0.189009
    30  H    0.471334
    31  H    0.473685
    32  C   -0.409393
    33  H    0.185872
    34  H    0.195473
    35  C    0.233480
    36  C   -0.246875
    37  H    0.151178
    38  C   -0.559786
    39  H    0.165225
    40  H    0.165177
    41  H    0.194147
    42  C    0.150345
    43  C   -0.199473
    44  C   -0.204593
    45  C   -0.158266
    46  H    0.162013
    47  C   -0.153869
    48  H    0.152994
    49  C   -0.150759
    50  H    0.153633
    51  H    0.153814
    52  H    0.153565
 Sum of Mulliken charges =  -0.00000

 Dipole moment (field-independent basis, Debye):
    X=              0.3059    Y=             -0.2643    Z=              0.6109  Tot=              0.7326
 Quadrupole moment (field-independent basis, Debye-Ang):
   XX=           -161.6127   YY=           -136.4643   ZZ=           -174.0950
   XY=             17.3026   XZ=            -10.9737   YZ=              2.8954

 Normal termination of Gaussian 16 at Thu Mar  2 08:57:45 2023.
