 Gaussian 16, Revision C.01,
 Gaussian 16:  ES64L-G16RevC.01  3-Jul-2019

 -----------------------------------------------------------
 # B3LYP/genecp em=GD3BJ int=fine scrf=(smd,solvent=acetone)
 -----------------------------------------------------------

 --------
 Template
 --------
 Symbolic Z-matrix:
 Charge =  0 Multiplicity = 1

                         Standard orientation:
 ---------------------------------------------------------------------
 Center     Atomic      Atomic             Coordinates (Angstroms)
 Number     Number       Type             X           Y           Z
 ---------------------------------------------------------------------
      1         27           0       -1.411309    0.143026    0.163389
      2          7           0       -2.228301    1.721196   -0.462157
      3          8           0       -3.251967    1.801812   -1.361184
      4          6           0       -1.751923    2.814627    0.040280
      5          6           0       -2.266201    4.175079   -0.287757
      6          1           0       -2.471068    4.732589    0.623219
      7          1           0       -3.173294    4.089217   -0.880363
      8          1           0       -1.519542    4.722828   -0.860549
      9          7           0       -0.311456    1.358622    1.098195
     10          8           0        0.646726    1.010626    1.896502
     11          6           0       -0.650180    2.609320    0.948414
     12          6           0        0.041855    3.737113    1.645859
     13          1           0        0.893819    3.333609    2.189567
     14          1           0       -0.627966    4.226393    2.351863
     15          1           0        0.387296    4.478151    0.928155
     16          7           0       -0.781182   -1.403126    1.012384
     17          8           0        0.319442   -1.492624    1.813779
     18          6           0       -1.494735   -2.465690    0.816456
     19          6           0       -1.202487   -3.791923    1.431666
     20          1           0       -2.091825   -4.187554    1.916855
     21          1           0       -0.401798   -3.689560    2.159651
     22          1           0       -0.896438   -4.496963    0.660495
     23          7           0       -2.691733   -1.050819   -0.545720
     24          8           0       -3.628062   -0.705336   -1.372603
     25          6           0       -2.605918   -2.265756   -0.080681
     26          6           0       -3.551587   -3.362271   -0.453830
     27          1           0       -3.011830   -4.204866   -0.881117
     28          1           0       -4.256251   -2.975727   -1.187375
     29          1           0       -4.103211   -3.711448    0.417806
     30          1           0       -3.525892    0.816216   -1.518230
     31          1           0        0.619889   -0.507008    1.938455
     32          6           0       -0.216842    0.040985   -1.480467
     33          1           0       -0.798662   -0.569038   -2.169675
     34          1           0       -0.173017    1.078833   -1.808563
     35          6           0        1.093454   -0.508126   -1.193311
     36          6           0        2.112109    0.342522   -0.897203
     37          1           0        1.883292    1.401214   -0.924427
     38          6           0        1.279201   -1.992533   -1.331399
     39          1           0        2.251207   -2.212735   -1.765955
     40          1           0        1.221821   -2.484544   -0.363546
     41          1           0        0.501430   -2.408717   -1.966661
     42          6           0        3.500904    0.054216   -0.608696
     43          6           0        3.942757   -1.112446    0.023090
     44          6           0        4.459170    1.018404   -0.951246
     45          6           0        5.287664   -1.314283    0.271343
     46          1           0        3.228601   -1.840817    0.365774
     47          6           0        5.802125    0.805851   -0.716627
     48          1           0        4.135968    1.935556   -1.422971
     49          6           0        6.224716   -0.366785   -0.108027
     50          1           0        5.608351   -2.218216    0.768779
     51          1           0        6.524491    1.557306   -1.001344
     52          1           0        7.275073   -0.533179    0.080589
 ---------------------------------------------------------------------

 SCF Done:  E(RB3LYP) =  -1365.93121904     A.U. after   20 cycles

 The electronic state is 1-A.
 Alpha  occ. eigenvalues --  -19.16571 -19.16519 -19.12719 -19.12521 -14.40964
 Alpha  occ. eigenvalues --  -14.40886 -14.40435 -14.40416 -10.23665 -10.23555
 Alpha  occ. eigenvalues --  -10.21278 -10.21264 -10.18599 -10.18385 -10.17585
 Alpha  occ. eigenvalues --  -10.17549 -10.17520 -10.17491 -10.17465 -10.17440
 Alpha  occ. eigenvalues --  -10.17431 -10.17378 -10.17193 -10.16806 -10.16761
 Alpha  occ. eigenvalues --  -10.15655  -3.74341  -2.44341  -2.43595  -2.42503
 Alpha  occ. eigenvalues --   -1.08998  -1.08454  -1.06867  -1.06316  -0.90549
 Alpha  occ. eigenvalues --   -0.89354  -0.85822  -0.81852  -0.80935  -0.80528
 Alpha  occ. eigenvalues --   -0.75321  -0.74636  -0.74239  -0.74175  -0.70618
 Alpha  occ. eigenvalues --   -0.70487  -0.68432  -0.66369  -0.62280  -0.60275
 Alpha  occ. eigenvalues --   -0.60098  -0.58801  -0.54835  -0.53509  -0.53008
 Alpha  occ. eigenvalues --   -0.52049  -0.51245  -0.50815  -0.49447  -0.48992
 Alpha  occ. eigenvalues --   -0.47595  -0.46891  -0.46653  -0.46136  -0.45384
 Alpha  occ. eigenvalues --   -0.44423  -0.43680  -0.42660  -0.42380  -0.42203
 Alpha  occ. eigenvalues --   -0.42061  -0.41911  -0.41459  -0.40801  -0.40543
 Alpha  occ. eigenvalues --   -0.39928  -0.39618  -0.39041  -0.38673  -0.38138
 Alpha  occ. eigenvalues --   -0.38064  -0.38005  -0.37574  -0.37235  -0.36800
 Alpha  occ. eigenvalues --   -0.36370  -0.34860  -0.34333  -0.34236  -0.33380
 Alpha  occ. eigenvalues --   -0.33121  -0.30863  -0.30340  -0.28314  -0.27885
 Alpha  occ. eigenvalues --   -0.27669  -0.26677  -0.26182  -0.25051  -0.24994
 Alpha  occ. eigenvalues --   -0.24927  -0.22257  -0.20175  -0.19744  -0.19438
 Alpha virt. eigenvalues --   -0.09230  -0.03809  -0.03385  -0.00327   0.00276
 Alpha virt. eigenvalues --    0.00492   0.02664   0.02757   0.03237   0.06356
 Alpha virt. eigenvalues --    0.06763   0.06925   0.07729   0.11177   0.12170

 Mulliken charges:
               1
     1  Co   0.332824
     2  N   -0.165533
     3  O   -0.573893
     4  C    0.323339
     5  C   -0.546901
     6  H    0.198875
     7  H    0.200001
     8  H    0.204196
     9  N   -0.076441
    10  O   -0.552508
    11  C    0.266861
    12  C   -0.547409
    13  H    0.190376
    14  H    0.188604
    15  H    0.185530
    16  N   -0.181646
    17  O   -0.569797
    18  C    0.329816
    19  C   -0.547266
    20  H    0.199457
    21  H    0.200073
    22  H    0.204063
    23  N   -0.070581
    24  O   -0.557034
    25  C    0.265174
    26  C   -0.547574
    27  H    0.186743
    28  H    0.190153
    29  H    0.188439
    30  H    0.470562
    31  H    0.473744
    32  C   -0.409306
    33  H    0.189118
    34  H    0.191173
    35  C    0.235149
    36  C   -0.244989
    37  H    0.151490
    38  C   -0.556922
    39  H    0.167343
    40  H    0.191494
    41  H    0.167011
    42  C    0.147211
    43  C   -0.199453
    44  C   -0.203139
    45  C   -0.157961
    46  H    0.160678
    47  C   -0.153876
    48  H    0.152809
    49  C   -0.150624
    50  H    0.153401
    51  H    0.153751
    52  H    0.153396
 Sum of Mulliken charges =  -0.00000

 Dipole moment (field-independent basis, Debye):
    X=              0.2110    Y=             -0.2517    Z=              0.8115  Tot=              0.8755
 Quadrupole moment (field-independent basis, Debye-Ang):
   XX=           -168.8347   YY=           -128.3850   ZZ=           -174.4302
   XY=              4.1911   XZ=            -12.8864   YZ=             -2.7420

 Normal termination of Gaussian 16 at Thu Mar  2 09:03:18 2023.
