 Gaussian 16, Revision C.01,
 Gaussian 16:  ES64L-G16RevC.01  3-Jul-2019

 -----------------------------------------------------------
 # B3LYP/genecp em=GD3BJ int=fine scrf=(smd,solvent=acetone)
 -----------------------------------------------------------

 --------
 Template
 --------
 Symbolic Z-matrix:
 Charge =  0 Multiplicity = 1

                         Standard orientation:
 ---------------------------------------------------------------------
 Center     Atomic      Atomic             Coordinates (Angstroms)
 Number     Number       Type             X           Y           Z
 ---------------------------------------------------------------------
      1         27           0       -1.348330    0.209347    0.295290
      2          7           0       -2.522985   -1.252962    0.270376
      3          8           0       -2.269193   -2.502037    0.755324
      4          6           0       -3.685382   -1.007794   -0.245141
      5          6           0       -4.786585   -2.008525   -0.330195
      6          1           0       -4.951024   -2.286717   -1.369986
      7          1           0       -5.711243   -1.588175    0.058224
      8          1           0       -4.517562   -2.896862    0.235389
      9          7           0       -2.743165    1.053756   -0.639150
     10          8           0       -2.691047    2.276923   -1.057180
     11          6           0       -3.821651    0.331407   -0.762282
     12          6           0       -5.079102    0.829891   -1.399506
     13          1           0       -4.901428    1.837125   -1.770731
     14          1           0       -5.894952    0.856672   -0.678614
     15          1           0       -5.370080    0.186220   -2.226960
     16          7           0       -0.285241    1.742492    0.541681
     17          8           0       -0.429173    2.935487   -0.108012
     18          6           0        0.653216    1.623651    1.424547
     19          6           0        1.592312    2.719180    1.796642
     20          1           0        2.598501    2.467238    1.465576
     21          1           0        1.613788    2.849710    2.876245
     22          1           0        1.282029    3.645154    1.319639
     23          7           0       -0.106110   -0.546783    1.507679
     24          8           0       -0.128796   -1.783438    1.904005
     25          6           0        0.746184    0.306406    2.002570
     26          6           0        1.757846   -0.046780    3.045192
     27          1           0        2.765406    0.132332    2.675124
     28          1           0        1.646844   -1.100426    3.293292
     29          1           0        1.609115    0.547517    3.945438
     30          1           0       -1.370666   -2.398057    1.260453
     31          1           0       -1.333088    2.844624   -0.597779
     32          6           0       -0.474412   -0.262540   -1.469318
     33          1           0       -1.149025   -0.987823   -1.922226
     34          1           0       -0.487218    0.685727   -2.005302
     35          6           0        0.864087   -0.780269   -1.257190
     36          6           0        1.914546    0.081781   -1.296430
     37          1           0        1.691529    1.111186   -1.551496
     38          6           0        1.012709   -2.262894   -1.082144
     39          1           0        1.979977   -2.602722   -1.441539
     40          1           0        0.913916   -2.539634   -0.033305
     41          1           0        0.227767   -2.781399   -1.627187
     42          6           0        3.322645   -0.179687   -1.084174
     43          6           0        4.259390    0.625586   -1.745994
     44          6           0        3.800798   -1.157808   -0.206152
     45          6           0        5.614725    0.430419   -1.574060
     46          1           0        3.906893    1.399101   -2.413201
     47          6           0        5.159245   -1.339053   -0.024141
     48          1           0        3.105212   -1.745370    0.369292
     49          6           0        6.072206   -0.557853   -0.714702
     50          1           0        6.320037    1.053281   -2.104916
     51          1           0        5.509243   -2.094227    0.664827
     52          1           0        7.132452   -0.708559   -0.575405
 ---------------------------------------------------------------------

 SCF Done:  E(RB3LYP) =  -1365.93352970     A.U. after   20 cycles

 The electronic state is 1-A.
 Alpha  occ. eigenvalues --  -19.16753 -19.16611 -19.12823 -19.12797 -14.41178
 Alpha  occ. eigenvalues --  -14.40872 -14.40555 -14.40514 -10.23686 -10.23539
 Alpha  occ. eigenvalues --  -10.21360 -10.21292 -10.18660 -10.18487 -10.17643
 Alpha  occ. eigenvalues --  -10.17617 -10.17578 -10.17535 -10.17517 -10.17470
 Alpha  occ. eigenvalues --  -10.17469 -10.17406 -10.17073 -10.16835 -10.16754
 Alpha  occ. eigenvalues --  -10.15370  -3.74585  -2.44617  -2.43793  -2.42760
 Alpha  occ. eigenvalues --   -1.09108  -1.08562  -1.07020  -1.06425  -0.90653
 Alpha  occ. eigenvalues --   -0.89472  -0.85877  -0.81943  -0.80982  -0.80643
 Alpha  occ. eigenvalues --   -0.75370  -0.74670  -0.74300  -0.74208  -0.70660
 Alpha  occ. eigenvalues --   -0.70530  -0.68329  -0.66429  -0.62347  -0.60362
 Alpha  occ. eigenvalues --   -0.60160  -0.58846  -0.54935  -0.53625  -0.52986
 Alpha  occ. eigenvalues --   -0.52143  -0.51403  -0.50930  -0.49497  -0.49073
 Alpha  occ. eigenvalues --   -0.47730  -0.46973  -0.46704  -0.46003  -0.45604
 Alpha  occ. eigenvalues --   -0.44577  -0.43431  -0.42789  -0.42494  -0.42297
 Alpha  occ. eigenvalues --   -0.42109  -0.41988  -0.41387  -0.40879  -0.40619
 Alpha  occ. eigenvalues --   -0.40122  -0.39534  -0.38977  -0.38885  -0.38153
 Alpha  occ. eigenvalues --   -0.38062  -0.37854  -0.37604  -0.37370  -0.36725
 Alpha  occ. eigenvalues --   -0.36415  -0.34807  -0.34616  -0.34306  -0.33492
 Alpha  occ. eigenvalues --   -0.33137  -0.30994  -0.30576  -0.28323  -0.27964
 Alpha  occ. eigenvalues --   -0.27743  -0.26781  -0.26446  -0.25242  -0.25110
 Alpha  occ. eigenvalues --   -0.25061  -0.22473  -0.20356  -0.19813  -0.19464
 Alpha virt. eigenvalues --   -0.09424  -0.03880  -0.03337  -0.00509   0.00128
 Alpha virt. eigenvalues --    0.00363   0.02615   0.02799   0.03251   0.06572
 Alpha virt. eigenvalues --    0.06670   0.06936   0.07791   0.11150   0.12489

 Mulliken charges:
               1
     1  Co   0.329574
     2  N   -0.169305
     3  O   -0.572580
     4  C    0.326323
     5  C   -0.546518
     6  H    0.205110
     7  H    0.199418
     8  H    0.200308
     9  N   -0.065161
    10  O   -0.555395
    11  C    0.268789
    12  C   -0.547009
    13  H    0.190400
    14  H    0.189617
    15  H    0.187135
    16  N   -0.171107
    17  O   -0.571196
    18  C    0.331744
    19  C   -0.548237
    20  H    0.204474
    21  H    0.198931
    22  H    0.199411
    23  N   -0.090879
    24  O   -0.550078
    25  C    0.273663
    26  C   -0.549964
    27  H    0.186888
    28  H    0.189869
    29  H    0.187728
    30  H    0.471617
    31  H    0.469725
    32  C   -0.396797
    33  H    0.186804
    34  H    0.191109
    35  C    0.235187
    36  C   -0.267901
    37  H    0.154015
    38  C   -0.558682
    39  H    0.163084
    40  H    0.194714
    41  H    0.164581
    42  C    0.148912
    43  C   -0.203322
    44  C   -0.202509
    45  C   -0.154011
    46  H    0.153642
    47  C   -0.159282
    48  H    0.166118
    49  C   -0.151167
    50  H    0.154285
    51  H    0.154231
    52  H    0.153694
 Sum of Mulliken charges =  -0.00000

 Dipole moment (field-independent basis, Debye):
    X=             -0.1944    Y=              0.1409    Z=              0.9634  Tot=              0.9928
 Quadrupole moment (field-independent basis, Debye-Ang):
   XX=           -132.4315   YY=           -176.6153   ZZ=           -161.9077
   XY=             11.5246   XZ=              7.1454   YZ=              9.6672

 Normal termination of Gaussian 16 at Thu Mar  2 08:06:15 2023.
