 Gaussian 16, Revision C.01,
 Gaussian 16:  ES64L-G16RevC.01  3-Jul-2019

 -----------------------------------------------------------
 # B3LYP/genecp em=GD3BJ int=fine scrf=(smd,solvent=acetone)
 -----------------------------------------------------------

 --------
 Template
 --------
 Symbolic Z-matrix:
 Charge =  0 Multiplicity = 1

                         Standard orientation:
 ---------------------------------------------------------------------
 Center     Atomic      Atomic             Coordinates (Angstroms)
 Number     Number       Type             X           Y           Z
 ---------------------------------------------------------------------
      1         27           0       -1.410695    0.083669    0.161100
      2          7           0       -2.391326    1.555844   -0.483955
      3          8           0       -3.418835    1.514818   -1.380899
      4          6           0       -2.036367    2.700047    0.005803
      5          6           0       -2.696053    3.992548   -0.336320
      6          1           0       -3.594489    3.800878   -0.917223
      7          1           0       -2.017848    4.606989   -0.926379
      8          1           0       -2.949914    4.539921    0.568367
      9          7           0       -0.441886    1.421589    1.072111
     10          8           0        0.554720    1.188935    1.865177
     11          6           0       -0.916189    2.626138    0.911657
     12          6           0       -0.348928    3.830447    1.593671
     13          1           0       -0.080246    4.592978    0.865631
     14          1           0        0.538552    3.526815    2.145442
     15          1           0       -1.069269    4.257074    2.290471
     16          7           0       -0.619984   -1.374240    1.033108
     17          8           0        0.490886   -1.337492    1.824512
     18          6           0       -1.224665   -2.506687    0.863501
     19          6           0       -0.798666   -3.784906    1.502358
     20          1           0        0.017827   -3.594742    2.194216
     21          1           0       -0.467872   -4.487703    0.739560
     22          1           0       -1.632720   -4.235495    2.035981
     23          7           0       -2.560175   -1.248898   -0.523848
     24          8           0       -3.526808   -1.017726   -1.355814
     25          6           0       -2.353492   -2.438153   -0.031241
     26          6           0       -3.186198   -3.631515   -0.375135
     27          1           0       -3.944466   -3.327914   -1.094070
     28          1           0       -3.676111   -4.030625    0.511633
     29          1           0       -2.570459   -4.415486   -0.811541
     30          1           0       -3.587162    0.503733   -1.523698
     31          1           0        0.691157   -0.325538    1.928695
     32          6           0       -0.218573    0.097088   -1.485294
     33          1           0       -0.776771   -0.508734   -2.197416
     34          1           0       -0.215742    1.147766   -1.773127
     35          6           0        1.112307   -0.409625   -1.215426
     36          6           0        2.096153    0.467566   -0.882969
     37          1           0        1.830098    1.517589   -0.870954
     38          6           0        1.359452   -1.878911   -1.410661
     39          1           0        2.345401   -2.042017   -1.838920
     40          1           0        1.309381   -2.413318   -0.465374
     41          1           0        0.607423   -2.299249   -2.073530
     42          6           0        3.493112    0.214217   -0.598017
     43          6           0        4.427275    1.204890   -0.929395
     44          6           0        3.961033   -0.947570    0.023205
     45          6           0        5.774668    1.021898   -0.694444
     46          1           0        4.082417    2.118302   -1.392884
     47          6           0        5.309818   -1.119583    0.272685
     48          1           0        3.261555   -1.693635    0.358792
     49          6           0        6.224140   -0.146040   -0.096175
     50          1           0        6.479524    1.792671   -0.971329
     51          1           0        5.651457   -2.019764    0.762933
     52          1           0        7.277955   -0.288985    0.092466
 ---------------------------------------------------------------------

 SCF Done:  E(RB3LYP) =  -1365.93146700     A.U. after   20 cycles

 The electronic state is 1-A.
 Alpha  occ. eigenvalues --  -19.16582 -19.16507 -19.12715 -19.12522 -14.40963
 Alpha  occ. eigenvalues --  -14.40896 -14.40451 -14.40408 -10.23664 -10.23553
 Alpha  occ. eigenvalues --  -10.21287 -10.21274 -10.18569 -10.18385 -10.17574
 Alpha  occ. eigenvalues --  -10.17539 -10.17508 -10.17481 -10.17469 -10.17432
 Alpha  occ. eigenvalues --  -10.17418 -10.17376 -10.17170 -10.16813 -10.16769
 Alpha  occ. eigenvalues --  -10.15708  -3.74342  -2.44344  -2.43598  -2.42502
 Alpha  occ. eigenvalues --   -1.08999  -1.08455  -1.06866  -1.06318  -0.90551
 Alpha  occ. eigenvalues --   -0.89358  -0.85813  -0.81852  -0.80937  -0.80533
 Alpha  occ. eigenvalues --   -0.75302  -0.74639  -0.74227  -0.74180  -0.70624
 Alpha  occ. eigenvalues --   -0.70493  -0.68443  -0.66366  -0.62279  -0.60282
 Alpha  occ. eigenvalues --   -0.60084  -0.58782  -0.54837  -0.53510  -0.52990
 Alpha  occ. eigenvalues --   -0.52051  -0.51240  -0.50818  -0.49481  -0.48987
 Alpha  occ. eigenvalues --   -0.47591  -0.46880  -0.46683  -0.46124  -0.45352
 Alpha  occ. eigenvalues --   -0.44430  -0.43672  -0.42671  -0.42399  -0.42208
 Alpha  occ. eigenvalues --   -0.42069  -0.41922  -0.41466  -0.40747  -0.40546
 Alpha  occ. eigenvalues --   -0.39901  -0.39624  -0.39083  -0.38695  -0.38149
 Alpha  occ. eigenvalues --   -0.38076  -0.38001  -0.37578  -0.37236  -0.36796
 Alpha  occ. eigenvalues --   -0.36382  -0.34887  -0.34329  -0.34229  -0.33407
 Alpha  occ. eigenvalues --   -0.33112  -0.30865  -0.30344  -0.28300  -0.27882
 Alpha  occ. eigenvalues --   -0.27669  -0.26609  -0.26176  -0.25059  -0.24982
 Alpha  occ. eigenvalues --   -0.24922  -0.22253  -0.20204  -0.19746  -0.19436
 Alpha virt. eigenvalues --   -0.09205  -0.03762  -0.03382  -0.00321   0.00268
 Alpha virt. eigenvalues --    0.00508   0.02633   0.02762   0.03227   0.06326
 Alpha virt. eigenvalues --    0.06752   0.06888   0.07720   0.11191   0.12172

 Mulliken charges:
               1
     1  Co   0.331658
     2  N   -0.164446
     3  O   -0.573688
     4  C    0.323781
     5  C   -0.546836
     6  H    0.200028
     7  H    0.204222
     8  H    0.198812
     9  N   -0.075379
    10  O   -0.552640
    11  C    0.266109
    12  C   -0.547389
    13  H    0.185526
    14  H    0.190289
    15  H    0.188683
    16  N   -0.182628
    17  O   -0.569678
    18  C    0.329366
    19  C   -0.547823
    20  H    0.200346
    21  H    0.203289
    22  H    0.200260
    23  N   -0.070832
    24  O   -0.557029
    25  C    0.265548
    26  C   -0.547855
    27  H    0.190240
    28  H    0.188135
    29  H    0.187188
    30  H    0.470193
    31  H    0.474031
    32  C   -0.407672
    33  H    0.188952
    34  H    0.190229
    35  C    0.235771
    36  C   -0.244900
    37  H    0.152262
    38  C   -0.555574
    39  H    0.167832
    40  H    0.190011
    41  H    0.167753
    42  C    0.144434
    43  C   -0.202214
    44  C   -0.198915
    45  C   -0.154134
    46  H    0.152513
    47  C   -0.158011
    48  H    0.160766
    49  C   -0.150663
    50  H    0.153641
    51  H    0.153226
    52  H    0.153210
 Sum of Mulliken charges =  -0.00000

 Dipole moment (field-independent basis, Debye):
    X=              0.1433    Y=             -0.2585    Z=              0.8620  Tot=              0.9113
 Quadrupole moment (field-independent basis, Debye-Ang):
   XX=           -169.2818   YY=           -128.1454   ZZ=           -174.2410
   XY=             -0.5696   XZ=            -12.8361   YZ=             -4.6041

 Normal termination of Gaussian 16 at Thu Mar  2 09:04:38 2023.
