 Gaussian 16, Revision C.01,
 Gaussian 16:  ES64L-G16RevC.01  3-Jul-2019

 -----------------------------------------------------------
 # B3LYP/genecp em=GD3BJ int=fine scrf=(smd,solvent=acetone)
 -----------------------------------------------------------

 --------
 Template
 --------
 Symbolic Z-matrix:
 Charge =  0 Multiplicity = 1

                         Standard orientation:
 ---------------------------------------------------------------------
 Center     Atomic      Atomic             Coordinates (Angstroms)
 Number     Number       Type             X           Y           Z
 ---------------------------------------------------------------------
      1         27           0       -1.365573    0.186894    0.187847
      2          7           0       -1.325698   -1.557030    0.881989
      3          8           0       -0.321640   -2.104473    1.624746
      4          6           0       -2.361185   -2.279693    0.596209
      5          6           0       -2.548593   -3.685833    1.054536
      6          1           0       -3.530484   -3.810072    1.505092
      7          1           0       -1.775915   -3.940085    1.775616
      8          1           0       -2.477096   -4.362834    0.204684
      9          7           0       -2.963092   -0.408582   -0.603331
     10          8           0       -3.710179    0.326921   -1.361229
     11          6           0       -3.323822   -1.608916   -0.242334
     12          6           0       -4.604559   -2.248450   -0.674990
     13          1           0       -4.409462   -3.187411   -1.188929
     14          1           0       -5.118816   -1.567732   -1.350298
     15          1           0       -5.245874   -2.449961    0.181842
     16          7           0       -1.526123    1.985813   -0.311288
     17          8           0       -2.381589    2.488595   -1.250092
     18          6           0       -0.750937    2.805204    0.323868
     19          6           0       -0.753042    4.280743    0.110172
     20          1           0        0.131190    4.574786   -0.453402
     21          1           0       -0.739995    4.803189    1.063330
     22          1           0       -1.635771    4.563924   -0.457685
     23          7           0        0.036562    0.860031    1.272223
     24          8           0        0.763835    0.135442    2.063647
     25          6           0        0.142536    2.160361    1.254991
     26          6           0        1.107321    2.918603    2.111319
     27          1           0        1.687414    3.620549    1.516440
     28          1           0        1.775285    2.204765    2.590086
     29          1           0        0.580536    3.476324    2.885315
     30          1           0        0.269784   -1.290185    1.883514
     31          1           0       -3.020962    1.704289   -1.451172
     32          6           0       -0.358332   -0.310268   -1.493830
     33          1           0       -0.549115   -1.377581   -1.599843
     34          1           0       -0.854126    0.261202   -2.277039
     35          6           0        1.049668    0.003423   -1.349548
     36          6           0        1.884452   -0.947212   -0.849038
     37          1           0        1.436624   -1.906059   -0.617542
     38          6           0        1.515266    1.345069   -1.839407
     39          1           0        1.589914    2.053699   -1.016757
     40          1           0        2.490770    1.259710   -2.311623
     41          1           0        0.805922    1.747480   -2.557980
     42          6           0        3.310058   -0.903992   -0.609715
     43          6           0        4.013315   -2.117414   -0.624160
     44          6           0        4.028492    0.262125   -0.326776
     45          6           0        5.375806   -2.157764   -0.412013
     46          1           0        3.474144   -3.033154   -0.819780
     47          6           0        5.391131    0.216051   -0.098740
     48          1           0        3.514455    1.203167   -0.240074
     49          6           0        6.074611   -0.987835   -0.152877
     50          1           0        5.897823   -3.103321   -0.440473
     51          1           0        5.925637    1.127723    0.126650
     52          1           0        7.140538   -1.017261    0.018441
 ---------------------------------------------------------------------

 SCF Done:  E(RB3LYP) =  -1365.93203870     A.U. after   20 cycles

 The electronic state is 1-A.
 Alpha  occ. eigenvalues --  -19.16662 -19.16459 -19.12735 -19.12517 -14.41097
 Alpha  occ. eigenvalues --  -14.40816 -14.40458 -14.40370 -10.23652 -10.23586
 Alpha  occ. eigenvalues --  -10.21242 -10.21241 -10.18639 -10.18542 -10.17603
 Alpha  occ. eigenvalues --  -10.17563 -10.17539 -10.17496 -10.17477 -10.17462
 Alpha  occ. eigenvalues --  -10.17438 -10.17421 -10.17182 -10.16802 -10.16790
 Alpha  occ. eigenvalues --  -10.15930  -3.74299  -2.44326  -2.43578  -2.42420
 Alpha  occ. eigenvalues --   -1.09009  -1.08441  -1.06920  -1.06293  -0.90565
 Alpha  occ. eigenvalues --   -0.89380  -0.85841  -0.81836  -0.81028  -0.80533
 Alpha  occ. eigenvalues --   -0.75399  -0.74623  -0.74259  -0.74161  -0.70614
 Alpha  occ. eigenvalues --   -0.70493  -0.68601  -0.66417  -0.62276  -0.60295
 Alpha  occ. eigenvalues --   -0.60140  -0.58863  -0.54850  -0.53552  -0.53017
 Alpha  occ. eigenvalues --   -0.52064  -0.51266  -0.50817  -0.49541  -0.48947
 Alpha  occ. eigenvalues --   -0.47647  -0.46875  -0.46735  -0.46200  -0.45360
 Alpha  occ. eigenvalues --   -0.44430  -0.43485  -0.42565  -0.42490  -0.42294
 Alpha  occ. eigenvalues --   -0.42057  -0.41865  -0.41503  -0.40659  -0.40552
 Alpha  occ. eigenvalues --   -0.39958  -0.39854  -0.39118  -0.38852  -0.38269
 Alpha  occ. eigenvalues --   -0.38055  -0.37923  -0.37533  -0.37277  -0.36924
 Alpha  occ. eigenvalues --   -0.36547  -0.34888  -0.34520  -0.34262  -0.33357
 Alpha  occ. eigenvalues --   -0.33118  -0.30911  -0.30497  -0.28282  -0.27768
 Alpha  occ. eigenvalues --   -0.27625  -0.26762  -0.26206  -0.25070  -0.24999
 Alpha  occ. eigenvalues --   -0.24911  -0.22271  -0.19918  -0.19776  -0.19573
 Alpha virt. eigenvalues --   -0.09160  -0.03804  -0.03305  -0.00307   0.00287
 Alpha virt. eigenvalues --    0.00465   0.02655   0.02807   0.03255   0.06384
 Alpha virt. eigenvalues --    0.06718   0.06848   0.07526   0.11200   0.12417

 Mulliken charges:
               1
     1  Co   0.316120
     2  N   -0.168063
     3  O   -0.572294
     4  C    0.323317
     5  C   -0.546696
     6  H    0.198823
     7  H    0.199591
     8  H    0.204440
     9  N   -0.064633
    10  O   -0.555557
    11  C    0.267266
    12  C   -0.547440
    13  H    0.186392
    14  H    0.189827
    15  H    0.188803
    16  N   -0.166906
    17  O   -0.571928
    18  C    0.329559
    19  C   -0.546111
    20  H    0.205343
    21  H    0.197352
    22  H    0.200163
    23  N   -0.080249
    24  O   -0.552782
    25  C    0.258627
    26  C   -0.548464
    27  H    0.183986
    28  H    0.190798
    29  H    0.189310
    30  H    0.472411
    31  H    0.469419
    32  C   -0.399411
    33  H    0.191385
    34  H    0.183978
    35  C    0.228953
    36  C   -0.245266
    37  H    0.151885
    38  C   -0.553994
    39  H    0.187706
    40  H    0.171305
    41  H    0.171704
    42  C    0.153750
    43  C   -0.204570
    44  C   -0.202641
    45  C   -0.153613
    46  H    0.153735
    47  C   -0.157610
    48  H    0.161867
    49  C   -0.150706
    50  H    0.154004
    51  H    0.153453
    52  H    0.153666
 Sum of Mulliken charges =  -0.00000

 Dipole moment (field-independent basis, Debye):
    X=              0.2485    Y=              0.3816    Z=              0.6003  Tot=              0.7535
 Quadrupole moment (field-independent basis, Debye-Ang):
   XX=           -160.0600   YY=           -136.3258   ZZ=           -174.8786
   XY=             17.3194   XZ=             -9.9208   YZ=              7.8819

 Normal termination of Gaussian 16 at Thu Mar  2 08:48:03 2023.
