 Gaussian 16, Revision C.01,
 Gaussian 16:  ES64L-G16RevC.01  3-Jul-2019

 -----------------------------------------------------------
 # B3LYP/genecp em=GD3BJ int=fine scrf=(smd,solvent=acetone)
 -----------------------------------------------------------

 --------
 Template
 --------
 Symbolic Z-matrix:
 Charge =  0 Multiplicity = 1

                         Standard orientation:
 ---------------------------------------------------------------------
 Center     Atomic      Atomic             Coordinates (Angstroms)
 Number     Number       Type             X           Y           Z
 ---------------------------------------------------------------------
      1         27           0       -1.371395    0.232856    0.276866
      2          7           0       -0.212770    1.712010    0.338368
      3          8           0       -0.257484    2.806498   -0.478072
      4          6           0        0.680769    1.668400    1.273055
      5          6           0        1.661620    2.757382    1.544814
      6          1           0        1.500361    3.163933    2.541897
      7          1           0        1.542701    3.550121    0.811024
      8          1           0        2.674520    2.363403    1.501769
      9          7           0       -0.246461   -0.402321    1.658298
     10          8           0       -0.403814   -1.538879    2.263069
     11          6           0        0.660310    0.450777    2.044031
     12          6           0        1.614700    0.189610    3.164491
     13          1           0        1.369169   -0.771761    3.610971
     14          1           0        1.547958    0.966957    3.923288
     15          1           0        2.636903    0.157137    2.790486
     16          7           0       -2.650062   -1.135527    0.413302
     17          8           0       -2.507711   -2.305951    1.099809
     18          6           0       -3.764087   -0.905388   -0.205189
     19          6           0       -4.925689   -1.838946   -0.202261
     20          1           0       -5.041978   -2.282911   -1.189749
     21          1           0       -5.841380   -1.304789    0.039505
     22          1           0       -4.755854   -2.630881    0.522755
     23          7           0       -2.659683    1.004197   -0.859791
     24          8           0       -2.500974    2.138595   -1.462113
     25          6           0       -3.779017    0.339626   -0.932982
     26          6           0       -4.965175    0.805625   -1.715023
     27          1           0       -4.700278    1.729359   -2.225357
     28          1           0       -5.813031    0.994222   -1.058046
     29          1           0       -5.256674    0.058045   -2.449757
     30          1           0       -1.137193    2.689558   -1.005576
     31          1           0       -1.639324   -2.165369    1.656252
     32          6           0       -0.436954   -0.579207   -1.333040
     33          1           0       -1.085623   -1.410258   -1.608526
     34          1           0       -0.474493    0.223240   -2.069230
     35          6           0        0.917998   -1.010774   -1.041890
     36          6           0        1.946426   -0.151667   -1.269922
     37          1           0        1.673149    0.846757   -1.590892
     38          6           0        1.084592   -2.408116   -0.521089
     39          1           0        1.267238   -3.096268   -1.345900
     40          1           0        1.911137   -2.473290    0.181177
     41          1           0        0.177492   -2.727604   -0.016547
     42          6           0        3.372286   -0.331192   -1.098323
     43          6           0        4.034242   -1.561585   -1.166731
     44          6           0        4.149495    0.815935   -0.880558
     45          6           0        5.402334   -1.639849   -0.981038
     46          1           0        3.486984   -2.456226   -1.407758
     47          6           0        5.511918    0.732597   -0.680723
     48          1           0        3.661866    1.779967   -0.857595
     49          6           0        6.146491   -0.500274   -0.722441
     50          1           0        5.893767   -2.600096   -1.042932
     51          1           0        6.085955    1.629985   -0.500025
     52          1           0        7.213452   -0.568691   -0.570488
 ---------------------------------------------------------------------

 SCF Done:  E(RB3LYP) =  -1365.93330004     A.U. after   21 cycles

 The electronic state is 1-A.
 Alpha  occ. eigenvalues --  -19.16716 -19.16590 -19.12819 -19.12766 -14.41137
 Alpha  occ. eigenvalues --  -14.40920 -14.40506 -14.40453 -10.23702 -10.23509
 Alpha  occ. eigenvalues --  -10.21360 -10.21242 -10.18709 -10.18510 -10.17616
 Alpha  occ. eigenvalues --  -10.17592 -10.17545 -10.17509 -10.17475 -10.17467
 Alpha  occ. eigenvalues --  -10.17456 -10.17389 -10.17036 -10.16834 -10.16742
 Alpha  occ. eigenvalues --  -10.15628  -3.74589  -2.44614  -2.43787  -2.42773
 Alpha  occ. eigenvalues --   -1.09068  -1.08506  -1.07010  -1.06421  -0.90630
 Alpha  occ. eigenvalues --   -0.89434  -0.85847  -0.81935  -0.80973  -0.80613
 Alpha  occ. eigenvalues --   -0.75429  -0.74657  -0.74283  -0.74200  -0.70651
 Alpha  occ. eigenvalues --   -0.70512  -0.68423  -0.66418  -0.62334  -0.60320
 Alpha  occ. eigenvalues --   -0.60155  -0.58874  -0.54920  -0.53590  -0.53031
 Alpha  occ. eigenvalues --   -0.52106  -0.51366  -0.50918  -0.49413  -0.49043
 Alpha  occ. eigenvalues --   -0.47732  -0.46927  -0.46627  -0.46220  -0.45524
 Alpha  occ. eigenvalues --   -0.44523  -0.43175  -0.42783  -0.42506  -0.42271
 Alpha  occ. eigenvalues --   -0.42043  -0.41831  -0.41438  -0.40954  -0.40606
 Alpha  occ. eigenvalues --   -0.40069  -0.39744  -0.38944  -0.38864  -0.38372
 Alpha  occ. eigenvalues --   -0.38058  -0.37881  -0.37600  -0.37472  -0.36938
 Alpha  occ. eigenvalues --   -0.36325  -0.34766  -0.34517  -0.34322  -0.33214
 Alpha  occ. eigenvalues --   -0.32832  -0.30972  -0.30909  -0.28315  -0.27958
 Alpha  occ. eigenvalues --   -0.27747  -0.26930  -0.26427  -0.25257  -0.25086
 Alpha  occ. eigenvalues --   -0.25039  -0.22434  -0.20097  -0.19844  -0.19570
 Alpha virt. eigenvalues --   -0.09378  -0.03868  -0.03354  -0.00523   0.00094
 Alpha virt. eigenvalues --    0.00347   0.02632   0.02977   0.03213   0.06325
 Alpha virt. eigenvalues --    0.06765   0.06845   0.07805   0.11039   0.12438

 Mulliken charges:
               1
     1  Co   0.327366
     2  N   -0.171987
     3  O   -0.572508
     4  C    0.334656
     5  C   -0.549242
     6  H    0.201862
     7  H    0.198948
     8  H    0.200651
     9  N   -0.083847
    10  O   -0.553717
    11  C    0.270098
    12  C   -0.549122
    13  H    0.190396
    14  H    0.185933
    15  H    0.189949
    16  N   -0.170247
    17  O   -0.572710
    18  C    0.325449
    19  C   -0.546142
    20  H    0.205371
    21  H    0.199139
    22  H    0.200225
    23  N   -0.067756
    24  O   -0.555393
    25  C    0.269550
    26  C   -0.546942
    27  H    0.190078
    28  H    0.189575
    29  H    0.187018
    30  H    0.469994
    31  H    0.473109
    32  C   -0.408133
    33  H    0.195318
    34  H    0.190658
    35  C    0.239763
    36  C   -0.273438
    37  H    0.152279
    38  C   -0.545736
    39  H    0.176714
    40  H    0.170040
    41  H    0.171687
    42  C    0.159044
    43  C   -0.204399
    44  C   -0.210177
    45  C   -0.157098
    46  H    0.161182
    47  C   -0.155340
    48  H    0.158235
    49  C   -0.151576
    50  H    0.153789
    51  H    0.154022
    52  H    0.153412
 Sum of Mulliken charges =  -0.00000

 Dipole moment (field-independent basis, Debye):
    X=             -0.1880    Y=              0.1468    Z=              0.7698  Tot=              0.8059
 Quadrupole moment (field-independent basis, Debye-Ang):
   XX=           -132.1434   YY=           -169.8432   ZZ=           -168.7924
   XY=              8.6939   XZ=              8.5035   YZ=             16.8182

 Normal termination of Gaussian 16 at Thu Mar  2 08:45:57 2023.
