 Gaussian 16, Revision C.01,
 Gaussian 16:  ES64L-G16RevC.01  3-Jul-2019

 -----------------------------------------------------------
 # B3LYP/genecp em=GD3BJ int=fine scrf=(smd,solvent=acetone)
 -----------------------------------------------------------

 --------
 Template
 --------
 Symbolic Z-matrix:
 Charge =  0 Multiplicity = 1

                         Standard orientation:
 ---------------------------------------------------------------------
 Center     Atomic      Atomic             Coordinates (Angstroms)
 Number     Number       Type             X           Y           Z
 ---------------------------------------------------------------------
      1         27           0        1.358731    0.210039    0.242801
      2          7           0        2.989420    0.336937   -0.676386
      3          8           0        3.406524    1.394254   -1.430896
      4          6           0        3.773244   -0.684863   -0.547739
      5          6           0        5.129467   -0.772594   -1.159388
      6          1           0        5.109911   -1.472407   -1.993569
      7          1           0        5.853480   -1.130212   -0.431569
      8          1           0        5.426150    0.205368   -1.529874
      9          7           0        1.992861   -1.528429    0.642361
     10          8           0        1.331689   -2.406141    1.331813
     11          6           0        3.204562   -1.764115    0.222615
     12          6           0        3.935729   -3.041990    0.484705
     13          1           0        3.265022   -3.722772    1.005129
     14          1           0        4.812453   -2.865655    1.106496
     15          1           0        4.259792   -3.496712   -0.449000
     16          7           0       -0.117805    0.156323    1.410094
     17          8           0       -0.616921   -0.949299    2.032531
     18          6           0       -0.656794    1.306666    1.653757
     19          6           0       -1.801247    1.510343    2.586171
     20          1           0       -2.700192    1.743758    2.017800
     21          1           0       -1.599765    2.338526    3.261369
     22          1           0       -1.973713    0.600978    3.155895
     23          7           0        0.887129    2.020650    0.101500
     24          8           0        1.503212    2.873810   -0.656779
     25          6           0       -0.068214    2.391705    0.907847
     26          6           0       -0.539420    3.805428    1.030504
     27          1           0        0.003400    4.415134    0.311060
     28          1           0       -0.352324    4.189925    2.032189
     29          1           0       -1.606407    3.871804    0.829278
     30          1           0        2.695536    2.127161   -1.252637
     31          1           0        0.077382   -1.689411    1.820807
     32          6           0        0.405785   -0.346384   -1.464463
     33          1           0        0.909403    0.234329   -2.236350
     34          1           0        0.647162   -1.407263   -1.528331
     35          6           0       -1.023881   -0.098889   -1.434688
     36          6           0       -1.852116   -1.034440   -0.903093
     37          1           0       -1.383995   -1.901513   -0.454141
     38          6           0       -1.502832    1.199314   -2.018470
     39          1           0       -1.691865    1.076099   -3.084450
     40          1           0       -2.418650    1.536603   -1.541322
     41          1           0       -0.739684    1.964380   -1.910424
     42          6           0       -3.294422   -1.001090   -0.760105
     43          6           0       -3.853757   -1.596415    0.377949
     44          6           0       -4.158673   -0.433176   -1.700125
     45          6           0       -5.217232   -1.578015    0.591274
     46          1           0       -3.196292   -2.046602    1.107360
     47          6           0       -5.525888   -0.434729   -1.491482
     48          1           0       -3.763559   -0.028957   -2.617387
     49          6           0       -6.060924   -0.993763   -0.342242
     50          1           0       -5.628112   -2.026763    1.484132
     51          1           0       -6.179783    0.001455   -2.232914
     52          1           0       -7.128661   -0.985608   -0.179669
 ---------------------------------------------------------------------

 SCF Done:  E(RB3LYP) =  -1365.93066987     A.U. after   21 cycles

 The electronic state is 1-A.
 Alpha  occ. eigenvalues --  -19.16676 -19.16638 -19.12743 -19.12729 -14.40977
 Alpha  occ. eigenvalues --  -14.40942 -14.40575 -14.40375 -10.23678 -10.23460
 Alpha  occ. eigenvalues --  -10.21371 -10.21367 -10.18546 -10.18430 -10.17550
 Alpha  occ. eigenvalues --  -10.17520 -10.17476 -10.17475 -10.17470 -10.17442
 Alpha  occ. eigenvalues --  -10.17367 -10.17364 -10.16973 -10.16826 -10.16806
 Alpha  occ. eigenvalues --  -10.15743  -3.74518  -2.44552  -2.43715  -2.42701
 Alpha  occ. eigenvalues --   -1.09080  -1.08545  -1.06885  -1.06347  -0.90620
 Alpha  occ. eigenvalues --   -0.89420  -0.85779  -0.81925  -0.80950  -0.80602
 Alpha  occ. eigenvalues --   -0.75311  -0.74640  -0.74199  -0.74183  -0.70654
 Alpha  occ. eigenvalues --   -0.70530  -0.68413  -0.66412  -0.62334  -0.60325
 Alpha  occ. eigenvalues --   -0.60063  -0.58780  -0.54905  -0.53550  -0.52959
 Alpha  occ. eigenvalues --   -0.52120  -0.51320  -0.50873  -0.49428  -0.49006
 Alpha  occ. eigenvalues --   -0.47647  -0.47007  -0.46640  -0.46140  -0.45315
 Alpha  occ. eigenvalues --   -0.44506  -0.43388  -0.42783  -0.42321  -0.42293
 Alpha  occ. eigenvalues --   -0.42055  -0.41937  -0.41527  -0.40907  -0.40607
 Alpha  occ. eigenvalues --   -0.39986  -0.39599  -0.39170  -0.38821  -0.38400
 Alpha  occ. eigenvalues --   -0.38092  -0.38024  -0.37601  -0.37314  -0.36784
 Alpha  occ. eigenvalues --   -0.36320  -0.34931  -0.34339  -0.34266  -0.33293
 Alpha  occ. eigenvalues --   -0.32909  -0.31013  -0.30468  -0.28382  -0.28014
 Alpha  occ. eigenvalues --   -0.27759  -0.26538  -0.26260  -0.25185  -0.25049
 Alpha  occ. eigenvalues --   -0.24954  -0.22364  -0.20191  -0.19812  -0.19556
 Alpha virt. eigenvalues --   -0.09215  -0.03847  -0.03435  -0.00438   0.00176
 Alpha virt. eigenvalues --    0.00468   0.02604   0.02876   0.03296   0.05975
 Alpha virt. eigenvalues --    0.06719   0.06791   0.07834   0.11047   0.12260

 Mulliken charges:
               1
     1  Co   0.332957
     2  N   -0.163570
     3  O   -0.572950
     4  C    0.326102
     5  C   -0.545355
     6  H    0.205921
     7  H    0.198424
     8  H    0.200255
     9  N   -0.079661
    10  O   -0.557481
    11  C    0.268778
    12  C   -0.548358
    13  H    0.190370
    14  H    0.189690
    15  H    0.186874
    16  N   -0.169473
    17  O   -0.567376
    18  C    0.322686
    19  C   -0.546780
    20  H    0.205225
    21  H    0.196859
    22  H    0.199074
    23  N   -0.082534
    24  O   -0.558279
    25  C    0.276009
    26  C   -0.549285
    27  H    0.190352
    28  H    0.189232
    29  H    0.187191
    30  H    0.471268
    31  H    0.471409
    32  C   -0.404642
    33  H    0.189981
    34  H    0.198495
    35  C    0.231729
    36  C   -0.247746
    37  H    0.148969
    38  C   -0.557876
    39  H    0.179169
    40  H    0.168106
    41  H    0.181716
    42  C    0.138109
    43  C   -0.200829
    44  C   -0.200445
    45  C   -0.155495
    46  H    0.155250
    47  C   -0.158552
    48  H    0.159554
    49  C   -0.151752
    50  H    0.153141
    51  H    0.153065
    52  H    0.152476
 Sum of Mulliken charges =  -0.00000

 Dipole moment (field-independent basis, Debye):
    X=              0.2240    Y=              0.5197    Z=              0.7917  Tot=              0.9732
 Quadrupole moment (field-independent basis, Debye-Ang):
   XX=           -139.0881   YY=           -170.7887   ZZ=           -161.5894
   XY=            -18.9089   XZ=             -1.7294   YZ=             11.3564

 Normal termination of Gaussian 16 at Thu Mar  2 08:18:38 2023.
