 Gaussian 16, Revision C.01,
 Gaussian 16:  ES64L-G16RevC.01  3-Jul-2019

 -----------------------------------------------------------
 # B3LYP/genecp em=GD3BJ int=fine scrf=(smd,solvent=acetone)
 -----------------------------------------------------------

 --------
 Template
 --------
 Symbolic Z-matrix:
 Charge =  0 Multiplicity = 1

                         Standard orientation:
 ---------------------------------------------------------------------
 Center     Atomic      Atomic             Coordinates (Angstroms)
 Number     Number       Type             X           Y           Z
 ---------------------------------------------------------------------
      1         27           0        1.381279    0.123231    0.302854
      2          7           0        0.015385   -0.462732    1.450096
      3          8           0       -0.235348   -1.752744    1.816417
      4          6           0       -0.710261    0.481745    1.955015
      5          6           0       -1.810225    0.254373    2.934145
      6          1           0       -2.771502    0.387825    2.439938
      7          1           0       -1.744938    0.966325    3.753055
      8          1           0       -1.751615   -0.760481    3.319299
      9          7           0        0.577057    1.795170    0.572452
     10          8           0        0.979460    2.892100    0.010068
     11          6           0       -0.383467    1.793460    1.453821
     12          6           0       -1.108645    3.027698    1.884526
     13          1           0       -0.753165    3.864154    1.286367
     14          1           0       -0.920878    3.240918    2.936108
     15          1           0       -2.180443    2.908541    1.741784
     16          7           0        2.900131    0.758986   -0.607876
     17          8           0        3.066277    2.012028   -1.123456
     18          6           0        3.866159   -0.094505   -0.724320
     19          6           0        5.172405    0.211706   -1.373185
     20          1           0        5.247838   -0.326605   -2.316680
     21          1           0        5.995758   -0.102643   -0.736261
     22          1           0        5.241908    1.278603   -1.569120
     23          7           0        2.357321   -1.500040    0.298523
     24          8           0        1.921440   -2.612524    0.802950
     25          6           0        3.561297   -1.399929   -0.191273
     26          6           0        4.536085   -2.533315   -0.225712
     27          1           0        5.413596   -2.307911    0.378643
     28          1           0        4.859932   -2.729085   -1.245818
     29          1           0        4.048512   -3.420018    0.174424
     30          1           0        0.573425   -2.281977    1.443254
     31          1           0        2.248719    2.538622   -0.768052
     32          6           0        0.390665   -0.308952   -1.422004
     33          1           0        0.948547    0.252586   -2.170718
     34          1           0        0.553499   -1.383000   -1.509847
     35          6           0       -1.019694    0.038569   -1.422447
     36          6           0       -1.928810   -0.869835   -0.983857
     37          1           0       -1.537327   -1.789331   -0.566439
     38          6           0       -1.387652    1.399051   -1.939618
     39          1           0       -1.494869    1.367932   -3.023464
     40          1           0       -2.320328    1.749323   -1.506736
     41          1           0       -0.602793    2.114179   -1.710637
     42          6           0       -3.373177   -0.766996   -0.918155
     43          6           0       -4.030344   -1.434919    0.123734
     44          6           0       -4.152564   -0.072602   -1.847924
     45          6           0       -5.401276   -1.361806    0.264322
     46          1           0       -3.443335   -1.996841    0.835814
     47          6           0       -5.527937   -0.016665   -1.713568
     48          1           0       -3.686109    0.386977   -2.703258
     49          6           0       -6.157781   -0.645889   -0.652056
     50          1           0       -5.886122   -1.870310    1.085142
     51          1           0       -6.114113    0.519688   -2.445795
     52          1           0       -7.231303   -0.592402   -0.546927
 ---------------------------------------------------------------------

 SCF Done:  E(RB3LYP) =  -1365.93127659     A.U. after   20 cycles

 The electronic state is 1-A.
 Alpha  occ. eigenvalues --  -19.16719 -19.16645 -19.12826 -19.12739 -14.41034
 Alpha  occ. eigenvalues --  -14.40977 -14.40531 -14.40444 -10.23709 -10.23473
 Alpha  occ. eigenvalues --  -10.21424 -10.21366 -10.18618 -10.18414 -10.17596
 Alpha  occ. eigenvalues --  -10.17576 -10.17521 -10.17475 -10.17468 -10.17467
 Alpha  occ. eigenvalues --  -10.17459 -10.17369 -10.16940 -10.16823 -10.16822
 Alpha  occ. eigenvalues --  -10.15514  -3.74611  -2.44635  -2.43788  -2.42816
 Alpha  occ. eigenvalues --   -1.09091  -1.08549  -1.06955  -1.06400  -0.90651
 Alpha  occ. eigenvalues --   -0.89458  -0.85825  -0.81958  -0.80912  -0.80643
 Alpha  occ. eigenvalues --   -0.75346  -0.74656  -0.74257  -0.74202  -0.70667
 Alpha  occ. eigenvalues --   -0.70548  -0.68326  -0.66409  -0.62356  -0.60354
 Alpha  occ. eigenvalues --   -0.60117  -0.58814  -0.54915  -0.53580  -0.52977
 Alpha  occ. eigenvalues --   -0.52131  -0.51358  -0.50925  -0.49416  -0.49034
 Alpha  occ. eigenvalues --   -0.47703  -0.47010  -0.46631  -0.46196  -0.45397
 Alpha  occ. eigenvalues --   -0.44551  -0.43348  -0.42774  -0.42440  -0.42289
 Alpha  occ. eigenvalues --   -0.42095  -0.41953  -0.41506  -0.40897  -0.40616
 Alpha  occ. eigenvalues --   -0.40019  -0.39585  -0.38994  -0.38854  -0.38487
 Alpha  occ. eigenvalues --   -0.38082  -0.38022  -0.37621  -0.37344  -0.36801
 Alpha  occ. eigenvalues --   -0.36138  -0.34874  -0.34390  -0.34326  -0.33258
 Alpha  occ. eigenvalues --   -0.32895  -0.31016  -0.30618  -0.28408  -0.28010
 Alpha  occ. eigenvalues --   -0.27782  -0.26661  -0.26366  -0.25267  -0.25101
 Alpha  occ. eigenvalues --   -0.25007  -0.22406  -0.20030  -0.19873  -0.19769
 Alpha virt. eigenvalues --   -0.09316  -0.03867  -0.03472  -0.00490   0.00040
 Alpha virt. eigenvalues --    0.00381   0.02610   0.02926   0.03226   0.06133
 Alpha virt. eigenvalues --    0.06713   0.06780   0.07827   0.11065   0.12445

 Mulliken charges:
               1
     1  Co   0.337644
     2  N   -0.167312
     3  O   -0.570542
     4  C    0.327369
     5  C   -0.547106
     6  H    0.204076
     7  H    0.196129
     8  H    0.197953
     9  N   -0.084608
    10  O   -0.553060
    11  C    0.277276
    12  C   -0.548912
    13  H    0.190407
    14  H    0.189599
    15  H    0.188061
    16  N   -0.169981
    17  O   -0.572789
    18  C    0.327388
    19  C   -0.546124
    20  H    0.205487
    21  H    0.199394
    22  H    0.200436
    23  N   -0.078020
    24  O   -0.557395
    25  C    0.269210
    26  C   -0.547851
    27  H    0.189470
    28  H    0.187210
    29  H    0.190335
    30  H    0.470611
    31  H    0.471057
    32  C   -0.407253
    33  H    0.194613
    34  H    0.198460
    35  C    0.232998
    36  C   -0.263786
    37  H    0.154017
    38  C   -0.562107
    39  H    0.175488
    40  H    0.166304
    41  H    0.183334
    42  C    0.145568
    43  C   -0.203892
    44  C   -0.201227
    45  C   -0.156127
    46  H    0.156394
    47  C   -0.157999
    48  H    0.161031
    49  C   -0.151630
    50  H    0.153886
    51  H    0.153566
    52  H    0.152952
 Sum of Mulliken charges =  -0.00000

 Dipole moment (field-independent basis, Debye):
    X=              0.2782    Y=              0.4613    Z=              0.8735  Tot=              1.0262
 Quadrupole moment (field-independent basis, Debye-Ang):
   XX=           -133.4177   YY=           -181.7881   ZZ=           -155.6203
   XY=            -10.5748   XZ=             -8.4190   YZ=              7.1717

 Normal termination of Gaussian 16 at Thu Mar  2 08:41:32 2023.
